LAMMPS data file. CGCMM style. atom_style full generated by VMD/TopoTools v1.7 on Wed Jun 28 15:25:08 CEST 2017
2596 atoms
892 bonds
548 angles
102 dihedrals
 0 impropers
 12 atom types
 4 bond types
 4 angle types
 1 dihedral types
 0 improper types
 -20.770 20.770  xlo xhi
 -21.282 21.282  ylo yhi
 -20 50  zlo zhi

 Masses

 1  12.010700 # C
 2  12.010700 # C_epoxy
 3  12.010700 # C_hydroxy
 4  15.999400 # O_epoxy
 5  15.999400 # O_hydroxy
 6  1.0079400 # H_hydroxy
 7  15.999400 # Ow
 8  1.0079400 # Hw
 9  15.999400 # O_H3O+
 10 1.0079400 # H_H3O+
 11 15.999400 # O_OH-
 12 1.0079400 # H_OH-


 Atoms

1 1 1 0.000 -19.034340 -20.561020   0.000000 # C 
2 1 1 0.000 -20.262363 -19.852020   0.000000 # C 
3 1 1 0.000 -20.262363 -18.434019   0.000000 # C 
4 1 1 0.000 -19.034340 -17.725019   0.000000 # C 
5 1 1 0.000 -16.578293 -20.561020   0.000000 # C 
6 1 1 0.000 -17.806316 -19.852020   0.000000 # C 
7 1 1 0.000 -17.806316 -18.434019   0.000000 # C 
8 1 1 0.000 -16.578293 -17.725019   0.000000 # C 
9 1 1 0.000 -14.122244 -20.561020   0.000000 # C 
10 1 1 0.000 -15.350267 -19.852020   0.000000 # C 
11 1 1 0.000 -15.350267 -18.434019   0.000000 # C 
12 1 1 0.000 -14.122244 -17.725019   0.000000 # C 
13 1 1 0.000 -11.666196 -20.561020   0.000000 # C 
14 1 1 0.000 -12.894220 -19.852020   0.000000 # C 
15 1 1 0.000 -12.894220 -18.434019   0.000000 # C 
16 1 1 0.000 -11.666196 -17.725019   0.000000 # C 
17 1 1 0.000  -9.210148 -20.561020   0.000000 # C 
18 1 1 0.000 -10.438171 -19.852020   0.000000 # C 
19 1 1 0.000 -10.438171 -18.434019   0.000000 # C 
20 1 1 0.000  -9.210148 -17.725019   0.000000 # C 
21 1 1 0.000  -6.754100 -20.561020   0.000000 # C 
22 1 1 0.000  -7.982123 -19.852020   0.000000 # C 
23 1 1 0.000  -7.982123 -18.434019   0.000000 # C 
24 1 1 0.000  -6.754100 -17.725019   0.000000 # C 
25 1 1 0.000  -4.298052 -20.561020   0.000000 # C 
26 1 1 0.000  -5.526075 -19.852020   0.000000 # C 
27 1 1 0.000  -5.526075 -18.434019   0.000000 # C 
28 1 1 0.000  -4.298052 -17.725019   0.000000 # C 
29 1 1 0.000  -1.842003 -20.561020   0.000000 # C 
30 1 1 0.000  -3.070027 -19.852020   0.000000 # C 
31 1 1 0.000  -3.070027 -18.434019   0.000000 # C 
32 1 1 0.000  -1.842003 -17.725019   0.000000 # C 
33 1 1 0.000   0.614044 -20.561020   0.000000 # C 
34 1 1 0.000  -0.613979 -19.852020   0.000000 # C 
35 1 1 0.000  -0.613979 -18.434019   0.000000 # C 
36 1 2 0.000   0.614044 -17.725019   0.000000 # C1
37 1 1 0.000   3.070093 -20.561020   0.000000 # C 
38 1 1 0.000   1.842068 -19.852020   0.000000 # C 
39 1 2 0.000   1.842068 -18.434019   0.000000 # C1
40 1 1 0.000   3.070093 -17.725019   0.000000 # C 
41 1 1 0.000   5.526140 -20.561020   0.000000 # C 
42 1 1 0.000   4.298117 -19.852020   0.000000 # C 
43 1 1 0.000   4.298117 -18.434019   0.000000 # C 
44 1 1 0.000   5.526140 -17.725019   0.000000 # C 
45 1 1 0.000   7.982189 -20.561020   0.000000 # C 
46 1 1 0.000   6.754164 -19.852020   0.000000 # C 
47 1 1 0.000   6.754164 -18.434019   0.000000 # C 
48 1 1 0.000   7.982189 -17.725019   0.000000 # C 
49 1 1 0.000  10.438236 -20.561020   0.000000 # C 
50 1 1 0.000   9.210213 -19.852020   0.000000 # C 
51 1 1 0.000   9.210213 -18.434019   0.000000 # C 
52 1 1 0.000  10.438236 -17.725019   0.000000 # C 
53 1 1 0.000  12.894285 -20.561020   0.000000 # C 
54 1 1 0.000  11.666260 -19.852020   0.000000 # C 
55 1 3 0.000  11.666260 -18.434019   0.000000 # C2
56 1 1 0.000  12.894285 -17.725019   0.000000 # C 
57 1 1 0.000  15.350334 -20.561020   0.000000 # C 
58 1 1 0.000  14.122307 -19.852020   0.000000 # C 
59 1 1 0.000  14.122307 -18.434019   0.000000 # C 
60 1 1 0.000  15.350334 -17.725019   0.000000 # C 
61 1 1 0.000  17.806381 -20.561020   0.000000 # C 
62 1 1 0.000  16.578358 -19.852020   0.000000 # C 
63 1 1 0.000  16.578358 -18.434019   0.000000 # C 
64 1 1 0.000  17.806381 -17.725019   0.000000 # C 
65 1 1 0.000  20.262428 -20.561020   0.000000 # C 
66 1 1 0.000  19.034405 -19.852020   0.000000 # C 
67 1 1 0.000  19.034405 -18.434019   0.000000 # C 
68 1 1 0.000  20.262428 -17.725019   0.000000 # C 
69 1 1 0.000 -19.034340 -16.307020   0.000000 # C 
70 1 1 0.000 -20.262363 -15.598021   0.000000 # C 
71 1 1 0.000 -20.262363 -14.180019   0.000000 # C 
72 1 2 0.000 -19.034340 -13.471020   0.000000 # C1
73 1 1 0.000 -16.578293 -16.307020   0.000000 # C 
74 1 1 0.000 -17.806316 -15.598021   0.000000 # C 
75 1 2 0.000 -17.806316 -14.180019   0.000000 # C1
76 1 1 0.000 -16.578293 -13.471020   0.000000 # C 
77 1 1 0.000 -14.122244 -16.307020   0.000000 # C 
78 1 1 0.000 -15.350267 -15.598021   0.000000 # C 
79 1 1 0.000 -15.350267 -14.180019   0.000000 # C 
80 1 1 0.000 -14.122244 -13.471020   0.000000 # C 
81 1 1 0.000 -11.666196 -16.307020   0.000000 # C 
82 1 1 0.000 -12.894220 -15.598021   0.000000 # C 
83 1 1 0.000 -12.894220 -14.180019   0.000000 # C 
84 1 1 0.000 -11.666196 -13.471020   0.000000 # C 
85 1 1 0.000  -9.210148 -16.307020   0.000000 # C 
86 1 1 0.000 -10.438171 -15.598021   0.000000 # C 
87 1 1 0.000 -10.438171 -14.180019   0.000000 # C 
88 1 1 0.000  -9.210148 -13.471020   0.000000 # C 
89 1 1 0.000  -6.754100 -16.307020   0.000000 # C 
90 1 1 0.000  -7.982123 -15.598021   0.000000 # C 
91 1 1 0.000  -7.982123 -14.180019   0.000000 # C 
92 1 1 0.000  -6.754100 -13.471020   0.000000 # C 
93 1 1 0.000  -4.298052 -16.307020   0.000000 # C 
94 1 1 0.000  -5.526075 -15.598021   0.000000 # C 
95 1 1 0.000  -5.526075 -14.180019   0.000000 # C 
96 1 1 0.000  -4.298052 -13.471020   0.000000 # C 
97 1 1 0.000  -1.842003 -16.307020   0.000000 # C 
98 1 1 0.000  -3.070027 -15.598021   0.000000 # C 
99 1 1 0.000  -3.070027 -14.180019   0.000000 # C 
100 1 2 0.000  -1.842003 -13.471020   0.000000 # C1
101 1 1 0.000   0.614044 -16.307020   0.000000 # C 
102 1 1 0.000  -0.613979 -15.598021   0.000000 # C 
103 1 2 0.000  -0.613979 -14.180019   0.000000 # C1
104 1 1 0.000   0.614044 -13.471020   0.000000 # C 
105 1 1 0.000   3.070093 -16.307020   0.000000 # C 
106 1 1 0.000   1.842068 -15.598021   0.000000 # C 
107 1 1 0.000   1.842068 -14.180019   0.000000 # C 
108 1 1 0.000   3.070093 -13.471020   0.000000 # C 
109 1 1 0.000   5.526140 -16.307020   0.000000 # C 
110 1 1 0.000   4.298117 -15.598021   0.000000 # C 
111 1 2 0.000   4.298117 -14.180019   0.000000 # C1
112 1 2 0.000   5.526140 -13.471020   0.000000 # C1
113 1 1 0.000   7.982189 -16.307020   0.000000 # C 
114 1 1 0.000   6.754164 -15.598021   0.000000 # C 
115 1 1 0.000   6.754164 -14.180019   0.000000 # C 
116 1 1 0.000   7.982189 -13.471020   0.000000 # C 
117 1 1 0.000  10.438236 -16.307020   0.000000 # C 
118 1 1 0.000   9.210213 -15.598021   0.000000 # C 
119 1 1 0.000   9.210213 -14.180019   0.000000 # C 
120 1 3 0.000  10.438236 -13.471020   0.000000 # C2
121 1 1 0.000  12.894285 -16.307020   0.000000 # C 
122 1 1 0.000  11.666260 -15.598021   0.000000 # C 
123 1 1 0.000  11.666260 -14.180019   0.000000 # C 
124 1 1 0.000  12.894285 -13.471020   0.000000 # C 
125 1 3 0.000  15.350334 -16.307020   0.000000 # C2
126 1 1 0.000  14.122307 -15.598021   0.000000 # C 
127 1 1 0.000  14.122307 -14.180019   0.000000 # C 
128 1 1 0.000  15.350334 -13.471020   0.000000 # C 
129 1 1 0.000  17.806381 -16.307020   0.000000 # C 
130 1 1 0.000  16.578358 -15.598021   0.000000 # C 
131 1 1 0.000  16.578358 -14.180019   0.000000 # C 
132 1 1 0.000  17.806381 -13.471020   0.000000 # C 
133 1 1 0.000  20.262428 -16.307020   0.000000 # C 
134 1 1 0.000  19.034405 -15.598021   0.000000 # C 
135 1 1 0.000  19.034405 -14.180019   0.000000 # C 
136 1 1 0.000  20.262428 -13.471020   0.000000 # C 
137 1 1 0.000 -19.034340 -12.053020   0.000000 # C 
138 1 1 0.000 -20.262363 -11.344020   0.000000 # C 
139 1 1 0.000 -20.262363  -9.926020   0.000000 # C 
140 1 1 0.000 -19.034340  -9.217020   0.000000 # C 
141 1 1 0.000 -16.578293 -12.053020   0.000000 # C 
142 1 1 0.000 -17.806316 -11.344020   0.000000 # C 
143 1 1 0.000 -17.806316  -9.926020   0.000000 # C 
144 1 1 0.000 -16.578293  -9.217020   0.000000 # C 
145 1 1 0.000 -14.122244 -12.053020   0.000000 # C 
146 1 1 0.000 -15.350267 -11.344020   0.000000 # C 
147 1 1 0.000 -15.350267  -9.926020   0.000000 # C 
148 1 1 0.000 -14.122244  -9.217020   0.000000 # C 
149 1 1 0.000 -11.666196 -12.053020   0.000000 # C 
150 1 1 0.000 -12.894220 -11.344020   0.000000 # C 
151 1 3 0.000 -12.894220  -9.926020   0.000000 # C2
152 1 1 0.000 -11.666196  -9.217020   0.000000 # C 
153 1 1 0.000  -9.210148 -12.053020   0.000000 # C 
154 1 1 0.000 -10.438171 -11.344020   0.000000 # C 
155 1 1 0.000 -10.438171  -9.926020   0.000000 # C 
156 1 1 0.000  -9.210148  -9.217020   0.000000 # C 
157 1 1 0.000  -6.754100 -12.053020   0.000000 # C 
158 1 1 0.000  -7.982123 -11.344020   0.000000 # C 
159 1 1 0.000  -7.982123  -9.926020   0.000000 # C 
160 1 2 0.000  -6.754100  -9.217020   0.000000 # C1
161 1 1 0.000  -4.298052 -12.053020   0.000000 # C 
162 1 1 0.000  -5.526075 -11.344020   0.000000 # C 
163 1 2 0.000  -5.526075  -9.926020   0.000000 # C1
164 1 1 0.000  -4.298052  -9.217020   0.000000 # C 
165 1 1 0.000  -1.842003 -12.053020   0.000000 # C 
166 1 1 0.000  -3.070027 -11.344020   0.000000 # C 
167 1 1 0.000  -3.070027  -9.926020   0.000000 # C 
168 1 1 0.000  -1.842003  -9.217020   0.000000 # C 
169 1 1 0.000   0.614044 -12.053020   0.000000 # C 
170 1 1 0.000  -0.613979 -11.344020   0.000000 # C 
171 1 1 0.000  -0.613979  -9.926020   0.000000 # C 
172 1 1 0.000   0.614044  -9.217020   0.000000 # C 
173 1 1 0.000   3.070093 -12.053020   0.000000 # C 
174 1 1 0.000   1.842068 -11.344020   0.000000 # C 
175 1 1 0.000   1.842068  -9.926020   0.000000 # C 
176 1 1 0.000   3.070093  -9.217020   0.000000 # C 
177 1 1 0.000   5.526140 -12.053020   0.000000 # C 
178 1 1 0.000   4.298117 -11.344020   0.000000 # C 
179 1 1 0.000   4.298117  -9.926020   0.000000 # C 
180 1 2 0.000   5.526140  -9.217020   0.000000 # C1
181 1 1 0.000   7.982189 -12.053020   0.000000 # C 
182 1 1 0.000   6.754164 -11.344020   0.000000 # C 
183 1 1 0.000   6.754164  -9.926020   0.000000 # C 
184 1 1 0.000   7.982189  -9.217020   0.000000 # C 
185 1 1 0.000  10.438236 -12.053020   0.000000 # C 
186 1 1 0.000   9.210213 -11.344020   0.000000 # C 
187 1 1 0.000   9.210213  -9.926020   0.000000 # C 
188 1 1 0.000  10.438236  -9.217020   0.000000 # C 
189 1 1 0.000  12.894285 -12.053020   0.000000 # C 
190 1 1 0.000  11.666260 -11.344020   0.000000 # C 
191 1 1 0.000  11.666260  -9.926020   0.000000 # C 
192 1 1 0.000  12.894285  -9.217020   0.000000 # C 
193 1 1 0.000  15.350334 -12.053020   0.000000 # C 
194 1 1 0.000  14.122307 -11.344020   0.000000 # C 
195 1 1 0.000  14.122307  -9.926020   0.000000 # C 
196 1 1 0.000  15.350334  -9.217020   0.000000 # C 
197 1 1 0.000  17.806381 -12.053020   0.000000 # C 
198 1 1 0.000  16.578358 -11.344020   0.000000 # C 
199 1 1 0.000  16.578358  -9.926020   0.000000 # C 
200 1 1 0.000  17.806381  -9.217020   0.000000 # C 
201 1 1 0.000  20.262428 -12.053020   0.000000 # C 
202 1 1 0.000  19.034405 -11.344020   0.000000 # C 
203 1 1 0.000  19.034405  -9.926020   0.000000 # C 
204 1 1 0.000  20.262428  -9.217020   0.000000 # C 
205 1 1 0.000 -19.034340  -7.799020   0.000000 # C 
206 1 1 0.000 -20.262363  -7.090020   0.000000 # C 
207 1 1 0.000 -20.262363  -5.672020   0.000000 # C 
208 1 1 0.000 -19.034340  -4.963020   0.000000 # C 
209 1 1 0.000 -16.578293  -7.799020   0.000000 # C 
210 1 1 0.000 -17.806316  -7.090020   0.000000 # C 
211 1 2 0.000 -17.806316  -5.672020   0.000000 # C1
212 1 2 0.000 -16.578293  -4.963020   0.000000 # C1
213 1 1 0.000 -14.122244  -7.799020   0.000000 # C 
214 1 1 0.000 -15.350267  -7.090020   0.000000 # C 
215 1 1 0.000 -15.350267  -5.672020   0.000000 # C 
216 1 1 0.000 -14.122244  -4.963020   0.000000 # C 
217 1 1 0.000 -11.666196  -7.799020   0.000000 # C 
218 1 1 0.000 -12.894220  -7.090020   0.000000 # C 
219 1 1 0.000 -12.894220  -5.672020   0.000000 # C 
220 1 3 0.000 -11.666196  -4.963020   0.000000 # C2
221 1 1 0.000  -9.210148  -7.799020   0.000000 # C 
222 1 1 0.000 -10.438171  -7.090020   0.000000 # C 
223 1 1 0.000 -10.438171  -5.672020   0.000000 # C 
224 1 1 0.000  -9.210148  -4.963020   0.000000 # C 
225 1 1 0.000  -6.754100  -7.799020   0.000000 # C 
226 1 1 0.000  -7.982123  -7.090020   0.000000 # C 
227 1 1 0.000  -7.982123  -5.672020   0.000000 # C 
228 1 1 0.000  -6.754100  -4.963020   0.000000 # C 
229 1 1 0.000  -4.298052  -7.799020   0.000000 # C 
230 1 1 0.000  -5.526075  -7.090020   0.000000 # C 
231 1 1 0.000  -5.526075  -5.672020   0.000000 # C 
232 1 1 0.000  -4.298052  -4.963020   0.000000 # C 
233 1 1 0.000  -1.842003  -7.799020   0.000000 # C 
234 1 1 0.000  -3.070027  -7.090020   0.000000 # C 
235 1 1 0.000  -3.070027  -5.672020   0.000000 # C 
236 1 1 0.000  -1.842003  -4.963020   0.000000 # C 
237 1 1 0.000   0.614044  -7.799020   0.000000 # C 
238 1 1 0.000  -0.613979  -7.090020   0.000000 # C 
239 1 1 0.000  -0.613979  -5.672020   0.000000 # C 
240 1 1 0.000   0.614044  -4.963020   0.000000 # C 
241 1 1 0.000   3.070093  -7.799020   0.000000 # C 
242 1 1 0.000   1.842068  -7.090020   0.000000 # C 
243 1 1 0.000   1.842068  -5.672020   0.000000 # C 
244 1 1 0.000   3.070093  -4.963020   0.000000 # C 
245 1 2 0.000   5.526140  -7.799020   0.000000 # C1
246 1 1 0.000   4.298117  -7.090020   0.000000 # C 
247 1 1 0.000   4.298117  -5.672020   0.000000 # C 
248 1 1 0.000   5.526140  -4.963020   0.000000 # C 
249 1 1 0.000   7.982189  -7.799020   0.000000 # C 
250 1 1 0.000   6.754164  -7.090020   0.000000 # C 
251 1 1 0.000   6.754164  -5.672020   0.000000 # C 
252 1 1 0.000   7.982189  -4.963020   0.000000 # C 
253 1 1 0.000  10.438236  -7.799020   0.000000 # C 
254 1 1 0.000   9.210213  -7.090020   0.000000 # C 
255 1 1 0.000   9.210213  -5.672020   0.000000 # C 
256 1 3 0.000  10.438236  -4.963020   0.000000 # C2
257 1 1 0.000  12.894285  -7.799020   0.000000 # C 
258 1 1 0.000  11.666260  -7.090020   0.000000 # C 
259 1 1 0.000  11.666260  -5.672020   0.000000 # C 
260 1 1 0.000  12.894285  -4.963020   0.000000 # C 
261 1 1 0.000  15.350334  -7.799020   0.000000 # C 
262 1 1 0.000  14.122307  -7.090020   0.000000 # C 
263 1 1 0.000  14.122307  -5.672020   0.000000 # C 
264 1 1 0.000  15.350334  -4.963020   0.000000 # C 
265 1 1 0.000  17.806381  -7.799020   0.000000 # C 
266 1 1 0.000  16.578358  -7.090020   0.000000 # C 
267 1 1 0.000  16.578358  -5.672020   0.000000 # C 
268 1 1 0.000  17.806381  -4.963020   0.000000 # C 
269 1 1 0.000  20.262428  -7.799020   0.000000 # C 
270 1 1 0.000  19.034405  -7.090020   0.000000 # C 
271 1 1 0.000  19.034405  -5.672020   0.000000 # C 
272 1 1 0.000  20.262428  -4.963020   0.000000 # C 
273 1 1 0.000 -19.034340  -3.545019   0.000000 # C 
274 1 1 0.000 -20.262363  -2.836020   0.000000 # C 
275 1 1 0.000 -20.262363  -1.418020   0.000000 # C 
276 1 1 0.000 -19.034340  -0.709021   0.000000 # C 
277 1 1 0.000 -16.578293  -3.545019   0.000000 # C 
278 1 1 0.000 -17.806316  -2.836020   0.000000 # C 
279 1 1 0.000 -17.806316  -1.418020   0.000000 # C 
280 1 1 0.000 -16.578293  -0.709021   0.000000 # C 
281 1 1 0.000 -14.122244  -3.545019   0.000000 # C 
282 1 1 0.000 -15.350267  -2.836020   0.000000 # C 
283 1 1 0.000 -15.350267  -1.418020   0.000000 # C 
284 1 1 0.000 -14.122244  -0.709021   0.000000 # C 
285 1 1 0.000 -11.666196  -3.545019   0.000000 # C 
286 1 1 0.000 -12.894220  -2.836020   0.000000 # C 
287 1 1 0.000 -12.894220  -1.418020   0.000000 # C 
288 1 2 0.000 -11.666196  -0.709021   0.000000 # C1
289 1 1 0.000  -9.210148  -3.545019   0.000000 # C 
290 1 1 0.000 -10.438171  -2.836020   0.000000 # C 
291 1 2 0.000 -10.438171  -1.418020   0.000000 # C1
292 1 1 0.000  -9.210148  -0.709021   0.000000 # C 
293 1 1 0.000  -6.754100  -3.545019   0.000000 # C 
294 1 1 0.000  -7.982123  -2.836020   0.000000 # C 
295 1 1 0.000  -7.982123  -1.418020   0.000000 # C 
296 1 3 0.000  -6.754100  -0.709021   0.000000 # C2
297 1 1 0.000  -4.298052  -3.545019   0.000000 # C 
298 1 1 0.000  -5.526075  -2.836020   0.000000 # C 
299 1 1 0.000  -5.526075  -1.418020   0.000000 # C 
300 1 1 0.000  -4.298052  -0.709021   0.000000 # C 
301 1 1 0.000  -1.842003  -3.545019   0.000000 # C 
302 1 1 0.000  -3.070027  -2.836020   0.000000 # C 
303 1 1 0.000  -3.070027  -1.418020   0.000000 # C 
304 1 1 0.000  -1.842003  -0.709021   0.000000 # C 
305 1 1 0.000   0.614044  -3.545019   0.000000 # C 
306 1 1 0.000  -0.613979  -2.836020   0.000000 # C 
307 1 1 0.000  -0.613979  -1.418020   0.000000 # C 
308 1 1 0.000   0.614044  -0.709021   0.000000 # C 
309 1 1 0.000   3.070093  -3.545019   0.000000 # C 
310 1 1 0.000   1.842068  -2.836020   0.000000 # C 
311 1 1 0.000   1.842068  -1.418020   0.000000 # C 
312 1 1 0.000   3.070093  -0.709021   0.000000 # C 
313 1 1 0.000   5.526140  -3.545019   0.000000 # C 
314 1 1 0.000   4.298117  -2.836020   0.000000 # C 
315 1 3 0.000   4.298117  -1.418020   0.000000 # C2
316 1 1 0.000   5.526140  -0.709021   0.000000 # C 
317 1 1 0.000   7.982189  -3.545019   0.000000 # C 
318 1 1 0.000   6.754164  -2.836020   0.000000 # C 
319 1 1 0.000   6.754164  -1.418020   0.000000 # C 
320 1 1 0.000   7.982189  -0.709021   0.000000 # C 
321 1 1 0.000  10.438236  -3.545019   0.000000 # C 
322 1 1 0.000   9.210213  -2.836020   0.000000 # C 
323 1 1 0.000   9.210213  -1.418020   0.000000 # C 
324 1 1 0.000  10.438236  -0.709021   0.000000 # C 
325 1 1 0.000  12.894285  -3.545019   0.000000 # C 
326 1 1 0.000  11.666260  -2.836020   0.000000 # C 
327 1 1 0.000  11.666260  -1.418020   0.000000 # C 
328 1 1 0.000  12.894285  -0.709021   0.000000 # C 
329 1 2 0.000  15.350334  -3.545019   0.000000 # C1
330 1 1 0.000  14.122307  -2.836020   0.000000 # C 
331 1 1 0.000  14.122307  -1.418020   0.000000 # C 
332 1 1 0.000  15.350334  -0.709021   0.000000 # C 
333 1 1 0.000  17.806381  -3.545019   0.000000 # C 
334 1 2 0.000  16.578358  -2.836020   0.000000 # C1
335 1 1 0.000  16.578358  -1.418020   0.000000 # C 
336 1 1 0.000  17.806381  -0.709021   0.000000 # C 
337 1 1 0.000  20.262428  -3.545019   0.000000 # C 
338 1 1 0.000  19.034405  -2.836020   0.000000 # C 
339 1 1 0.000  19.034405  -1.418020   0.000000 # C 
340 1 1 0.000  20.262428  -0.709021   0.000000 # C 
341 1 1 0.000 -19.034340   0.708981   0.000000 # C 
342 1 1 0.000 -20.262363   1.417980   0.000000 # C 
343 1 1 0.000 -20.262363   2.835979   0.000000 # C 
344 1 1 0.000 -19.034340   3.544981   0.000000 # C 
345 1 1 0.000 -16.578293   0.708981   0.000000 # C 
346 1 1 0.000 -17.806316   1.417980   0.000000 # C 
347 1 1 0.000 -17.806316   2.835979   0.000000 # C 
348 1 1 0.000 -16.578293   3.544981   0.000000 # C 
349 1 1 0.000 -14.122244   0.708981   0.000000 # C 
350 1 1 0.000 -15.350267   1.417980   0.000000 # C 
351 1 1 0.000 -15.350267   2.835979   0.000000 # C 
352 1 1 0.000 -14.122244   3.544981   0.000000 # C 
353 1 1 0.000 -11.666196   0.708981   0.000000 # C 
354 1 1 0.000 -12.894220   1.417980   0.000000 # C 
355 1 1 0.000 -12.894220   2.835979   0.000000 # C 
356 1 1 0.000 -11.666196   3.544981   0.000000 # C 
357 1 1 0.000  -9.210148   0.708981   0.000000 # C 
358 1 1 0.000 -10.438171   1.417980   0.000000 # C 
359 1 1 0.000 -10.438171   2.835979   0.000000 # C 
360 1 1 0.000  -9.210148   3.544981   0.000000 # C 
361 1 1 0.000  -6.754100   0.708981   0.000000 # C 
362 1 1 0.000  -7.982123   1.417980   0.000000 # C 
363 1 1 0.000  -7.982123   2.835979   0.000000 # C 
364 1 1 0.000  -6.754100   3.544981   0.000000 # C 
365 1 2 0.000  -4.298052   0.708981   0.000000 # C1
366 1 1 0.000  -5.526075   1.417980   0.000000 # C 
367 1 1 0.000  -5.526075   2.835979   0.000000 # C 
368 1 1 0.000  -4.298052   3.544981   0.000000 # C 
369 1 1 0.000  -1.842003   0.708981   0.000000 # C 
370 1 2 0.000  -3.070027   1.417980   0.000000 # C1
371 1 1 0.000  -3.070027   2.835979   0.000000 # C 
372 1 1 0.000  -1.842003   3.544981   0.000000 # C 
373 1 3 0.000   0.614044   0.708981   0.000000 # C2
374 1 1 0.000  -0.613979   1.417980   0.000000 # C 
375 1 1 0.000  -0.613979   2.835979   0.000000 # C 
376 1 1 0.000   0.614044   3.544981   0.000000 # C 
377 1 1 0.000   3.070093   0.708981   0.000000 # C 
378 1 1 0.000   1.842068   1.417980   0.000000 # C 
379 1 1 0.000   1.842068   2.835979   0.000000 # C 
380 1 1 0.000   3.070093   3.544981   0.000000 # C 
381 1 1 0.000   5.526140   0.708981   0.000000 # C 
382 1 1 0.000   4.298117   1.417980   0.000000 # C 
383 1 1 0.000   4.298117   2.835979   0.000000 # C 
384 1 1 0.000   5.526140   3.544981   0.000000 # C 
385 1 1 0.000   7.982189   0.708981   0.000000 # C 
386 1 3 0.000   6.754164   1.417980   0.000000 # C2
387 1 1 0.000   6.754164   2.835979   0.000000 # C 
388 1 1 0.000   7.982189   3.544981   0.000000 # C 
389 1 3 0.000  10.438236   0.708981   0.000000 # C2
390 1 1 0.000   9.210213   1.417980   0.000000 # C 
391 1 1 0.000   9.210213   2.835979   0.000000 # C 
392 1 1 0.000  10.438236   3.544981   0.000000 # C 
393 1 1 0.000  12.894285   0.708981   0.000000 # C 
394 1 1 0.000  11.666260   1.417980   0.000000 # C 
395 1 1 0.000  11.666260   2.835979   0.000000 # C 
396 1 2 0.000  12.894285   3.544981   0.000000 # C1
397 1 1 0.000  15.350334   0.708981   0.000000 # C 
398 1 1 0.000  14.122307   1.417980   0.000000 # C 
399 1 2 0.000  14.122307   2.835979   0.000000 # C1
400 1 1 0.000  15.350334   3.544981   0.000000 # C 
401 1 1 0.000  17.806381   0.708981   0.000000 # C 
402 1 1 0.000  16.578358   1.417980   0.000000 # C 
403 1 2 0.000  16.578358   2.835979   0.000000 # C1
404 1 2 0.000  17.806381   3.544981   0.000000 # C1
405 1 1 0.000  20.262428   0.708981   0.000000 # C 
406 1 1 0.000  19.034405   1.417980   0.000000 # C 
407 1 1 0.000  19.034405   2.835979   0.000000 # C 
408 1 1 0.000  20.262428   3.544981   0.000000 # C 
409 1 2 0.000 -19.034340   4.962980   0.000000 # C1
410 1 1 0.000 -20.262363   5.671980   0.000000 # C 
411 1 1 0.000 -20.262363   7.089979   0.000000 # C 
412 1 1 0.000 -19.034340   7.798981   0.000000 # C 
413 1 1 0.000 -16.578293   4.962980   0.000000 # C 
414 1 2 0.000 -17.806316   5.671980   0.000000 # C1
415 1 1 0.000 -17.806316   7.089979   0.000000 # C 
416 1 1 0.000 -16.578293   7.798981   0.000000 # C 
417 1 1 0.000 -14.122244   4.962980   0.000000 # C 
418 1 1 0.000 -15.350267   5.671980   0.000000 # C 
419 1 1 0.000 -15.350267   7.089979   0.000000 # C 
420 1 1 0.000 -14.122244   7.798981   0.000000 # C 
421 1 1 0.000 -11.666196   4.962980   0.000000 # C 
422 1 1 0.000 -12.894220   5.671980   0.000000 # C 
423 1 1 0.000 -12.894220   7.089979   0.000000 # C 
424 1 1 0.000 -11.666196   7.798981   0.000000 # C 
425 1 1 0.000  -9.210148   4.962980   0.000000 # C 
426 1 1 0.000 -10.438171   5.671980   0.000000 # C 
427 1 1 0.000 -10.438171   7.089979   0.000000 # C 
428 1 1 0.000  -9.210148   7.798981   0.000000 # C 
429 1 1 0.000  -6.754100   4.962980   0.000000 # C 
430 1 1 0.000  -7.982123   5.671980   0.000000 # C 
431 1 1 0.000  -7.982123   7.089979   0.000000 # C 
432 1 1 0.000  -6.754100   7.798981   0.000000 # C 
433 1 1 0.000  -4.298052   4.962980   0.000000 # C 
434 1 1 0.000  -5.526075   5.671980   0.000000 # C 
435 1 1 0.000  -5.526075   7.089979   0.000000 # C 
436 1 1 0.000  -4.298052   7.798981   0.000000 # C 
437 1 1 0.000  -1.842003   4.962980   0.000000 # C 
438 1 1 0.000  -3.070027   5.671980   0.000000 # C 
439 1 2 0.000  -3.070027   7.089979   0.000000 # C1
440 1 2 0.000  -1.842003   7.798981   0.000000 # C1
441 1 1 0.000   0.614044   4.962980   0.000000 # C 
442 1 1 0.000  -0.613979   5.671980   0.000000 # C 
443 1 1 0.000  -0.613979   7.089979   0.000000 # C 
444 1 1 0.000   0.614044   7.798981   0.000000 # C 
445 1 1 0.000   3.070093   4.962980   0.000000 # C 
446 1 1 0.000   1.842068   5.671980   0.000000 # C 
447 1 1 0.000   1.842068   7.089979   0.000000 # C 
448 1 2 0.000   3.070093   7.798981   0.000000 # C1
449 1 1 0.000   5.526140   4.962980   0.000000 # C 
450 1 1 0.000   4.298117   5.671980   0.000000 # C 
451 1 1 0.000   4.298117   7.089979   0.000000 # C 
452 1 1 0.000   5.526140   7.798981   0.000000 # C 
453 1 1 0.000   7.982189   4.962980   0.000000 # C 
454 1 3 0.000   6.754164   5.671980   0.000000 # C2
455 1 1 0.000   6.754164   7.089979   0.000000 # C 
456 1 1 0.000   7.982189   7.798981   0.000000 # C 
457 1 1 0.000  10.438236   4.962980   0.000000 # C 
458 1 1 0.000   9.210213   5.671980   0.000000 # C 
459 1 1 0.000   9.210213   7.089979   0.000000 # C 
460 1 1 0.000  10.438236   7.798981   0.000000 # C 
461 1 1 0.000  12.894285   4.962980   0.000000 # C 
462 1 1 0.000  11.666260   5.671980   0.000000 # C 
463 1 1 0.000  11.666260   7.089979   0.000000 # C 
464 1 1 0.000  12.894285   7.798981   0.000000 # C 
465 1 1 0.000  15.350334   4.962980   0.000000 # C 
466 1 1 0.000  14.122307   5.671980   0.000000 # C 
467 1 1 0.000  14.122307   7.089979   0.000000 # C 
468 1 1 0.000  15.350334   7.798981   0.000000 # C 
469 1 1 0.000  17.806381   4.962980   0.000000 # C 
470 1 1 0.000  16.578358   5.671980   0.000000 # C 
471 1 1 0.000  16.578358   7.089979   0.000000 # C 
472 1 1 0.000  17.806381   7.798981   0.000000 # C 
473 1 1 0.000  20.262428   4.962980   0.000000 # C 
474 1 1 0.000  19.034405   5.671980   0.000000 # C 
475 1 1 0.000  19.034405   7.089979   0.000000 # C 
476 1 1 0.000  20.262428   7.798981   0.000000 # C 
477 1 1 0.000 -19.034340   9.216980   0.000000 # C 
478 1 1 0.000 -20.262363   9.925980   0.000000 # C 
479 1 1 0.000 -20.262363  11.343981   0.000000 # C 
480 1 2 0.000 -19.034340  12.052979   0.000000 # C1
481 1 1 0.000 -16.578293   9.216980   0.000000 # C 
482 1 1 0.000 -17.806316   9.925980   0.000000 # C 
483 1 2 0.000 -17.806316  11.343981   0.000000 # C1
484 1 1 0.000 -16.578293  12.052979   0.000000 # C 
485 1 1 0.000 -14.122244   9.216980   0.000000 # C 
486 1 1 0.000 -15.350267   9.925980   0.000000 # C 
487 1 1 0.000 -15.350267  11.343981   0.000000 # C 
488 1 1 0.000 -14.122244  12.052979   0.000000 # C 
489 1 2 0.000 -11.666196   9.216980   0.000000 # C1
490 1 1 0.000 -12.894220   9.925980   0.000000 # C 
491 1 1 0.000 -12.894220  11.343981   0.000000 # C 
492 1 1 0.000 -11.666196  12.052979   0.000000 # C 
493 1 1 0.000  -9.210148   9.216980   0.000000 # C 
494 1 2 0.000 -10.438171   9.925980   0.000000 # C1
495 1 1 0.000 -10.438171  11.343981   0.000000 # C 
496 1 1 0.000  -9.210148  12.052979   0.000000 # C 
497 1 1 0.000  -6.754100   9.216980   0.000000 # C 
498 1 1 0.000  -7.982123   9.925980   0.000000 # C 
499 1 1 0.000  -7.982123  11.343981   0.000000 # C 
500 1 1 0.000  -6.754100  12.052979   0.000000 # C 
501 1 1 0.000  -4.298052   9.216980   0.000000 # C 
502 1 1 0.000  -5.526075   9.925980   0.000000 # C 
503 1 1 0.000  -5.526075  11.343981   0.000000 # C 
504 1 3 0.000  -4.298052  12.052979   0.000000 # C2
505 1 1 0.000  -1.842003   9.216980   0.000000 # C 
506 1 1 0.000  -3.070027   9.925980   0.000000 # C 
507 1 1 0.000  -3.070027  11.343981   0.000000 # C 
508 1 1 0.000  -1.842003  12.052979   0.000000 # C 
509 1 1 0.000   0.614044   9.216980   0.000000 # C 
510 1 1 0.000  -0.613979   9.925980   0.000000 # C 
511 1 1 0.000  -0.613979  11.343981   0.000000 # C 
512 1 1 0.000   0.614044  12.052979   0.000000 # C 
513 1 2 0.000   3.070093   9.216980   0.000000 # C1
514 1 1 0.000   1.842068   9.925980   0.000000 # C 
515 1 1 0.000   1.842068  11.343981   0.000000 # C 
516 1 1 0.000   3.070093  12.052979   0.000000 # C 
517 1 1 0.000   5.526140   9.216980   0.000000 # C 
518 1 1 0.000   4.298117   9.925980   0.000000 # C 
519 1 1 0.000   4.298117  11.343981   0.000000 # C 
520 1 1 0.000   5.526140  12.052979   0.000000 # C 
521 1 1 0.000   7.982189   9.216980   0.000000 # C 
522 1 1 0.000   6.754164   9.925980   0.000000 # C 
523 1 1 0.000   6.754164  11.343981   0.000000 # C 
524 1 1 0.000   7.982189  12.052979   0.000000 # C 
525 1 1 0.000  10.438236   9.216980   0.000000 # C 
526 1 1 0.000   9.210213   9.925980   0.000000 # C 
527 1 1 0.000   9.210213  11.343981   0.000000 # C 
528 1 1 0.000  10.438236  12.052979   0.000000 # C 
529 1 1 0.000  12.894285   9.216980   0.000000 # C 
530 1 1 0.000  11.666260   9.925980   0.000000 # C 
531 1 3 0.000  11.666260  11.343981   0.000000 # C2
532 1 1 0.000  12.894285  12.052979   0.000000 # C 
533 1 1 0.000  15.350334   9.216980   0.000000 # C 
534 1 1 0.000  14.122307   9.925980   0.000000 # C 
535 1 1 0.000  14.122307  11.343981   0.000000 # C 
536 1 1 0.000  15.350334  12.052979   0.000000 # C 
537 1 1 0.000  17.806381   9.216980   0.000000 # C 
538 1 1 0.000  16.578358   9.925980   0.000000 # C 
539 1 1 0.000  16.578358  11.343981   0.000000 # C 
540 1 1 0.000  17.806381  12.052979   0.000000 # C 
541 1 1 0.000  20.262428   9.216980   0.000000 # C 
542 1 1 0.000  19.034405   9.925980   0.000000 # C 
543 1 1 0.000  19.034405  11.343981   0.000000 # C 
544 1 1 0.000  20.262428  12.052979   0.000000 # C 
545 1 1 0.000 -19.034340  13.470982   0.000000 # C 
546 1 1 0.000 -20.262363  14.179981   0.000000 # C 
547 1 1 0.000 -20.262363  15.597980   0.000000 # C 
548 1 1 0.000 -19.034340  16.306980   0.000000 # C 
549 1 1 0.000 -16.578293  13.470982   0.000000 # C 
550 1 1 0.000 -17.806316  14.179981   0.000000 # C 
551 1 1 0.000 -17.806316  15.597980   0.000000 # C 
552 1 1 0.000 -16.578293  16.306980   0.000000 # C 
553 1 1 0.000 -14.122244  13.470982   0.000000 # C 
554 1 1 0.000 -15.350267  14.179981   0.000000 # C 
555 1 1 0.000 -15.350267  15.597980   0.000000 # C 
556 1 1 0.000 -14.122244  16.306980   0.000000 # C 
557 1 1 0.000 -11.666196  13.470982   0.000000 # C 
558 1 1 0.000 -12.894220  14.179981   0.000000 # C 
559 1 1 0.000 -12.894220  15.597980   0.000000 # C 
560 1 1 0.000 -11.666196  16.306980   0.000000 # C 
561 1 1 0.000  -9.210148  13.470982   0.000000 # C 
562 1 1 0.000 -10.438171  14.179981   0.000000 # C 
563 1 1 0.000 -10.438171  15.597980   0.000000 # C 
564 1 1 0.000  -9.210148  16.306980   0.000000 # C 
565 1 1 0.000  -6.754100  13.470982   0.000000 # C 
566 1 1 0.000  -7.982123  14.179981   0.000000 # C 
567 1 1 0.000  -7.982123  15.597980   0.000000 # C 