LAMMPS data file. CGCMM style. atom_style full generated by VMD/TopoTools v1.5 on Tue May 17 19:22:16 CEST 2016
 699 atoms
 466 bonds
 233 angles
 0 dihedrals
 0 impropers
 2 atom types
 1 bond types
 1 angle types
 0 dihedral types
 0 improper types
 -10.023499 9.976501  xlo xhi
 -10.066000 9.934000  ylo yhi
 -9.911500 10.088500  zlo zhi

 Masses

 1 1.007940 # HT
 2 15.999400 # OT

 Atoms

1 1 2 -0.834000 -6.332000 0.082000 5.904000 # OT TIP3
2 1 1 0.417000 -6.776000 0.451000 5.101000 # HT TIP3
3 1 1 0.417000 -6.908000 0.379000 6.627000 # HT TIP3
4 2 2 -0.834000 -4.814000 6.696000 2.072000 # OT TIP3
5 2 1 0.417000 -3.917000 6.979000 1.816000 # HT TIP3
6 2 1 0.417000 -4.663000 5.832000 2.490000 # HT TIP3
7 3 2 -0.834000 -6.214000 6.318000 -8.690000 # OT TIP3
8 3 1 0.417000 -6.219000 5.388000 -8.804000 # HT TIP3
9 3 1 0.417000 -5.472000 6.580000 -9.219000 # HT TIP3
10 4 2 -0.834000 -3.795000 -3.009000 8.442000 # OT TIP3
11 4 1 0.417000 -3.218000 -2.653000 9.152000 # HT TIP3
12 4 1 0.417000 -4.691000 -2.938000 8.800000 # HT TIP3
13 5 2 -0.834000 6.126000 4.701000 -5.423000 # OT TIP3
14 5 1 0.417000 6.070000 4.272000 -6.274000 # HT TIP3
15 5 1 0.417000 6.805000 5.454000 -5.555000 # HT TIP3
16 6 2 -0.834000 -7.250000 -1.156000 -0.371000 # OT TIP3
17 6 1 0.417000 -7.890000 -1.710000 -0.002000 # HT TIP3
18 6 1 0.417000 -7.836000 -0.755000 -1.038000 # HT TIP3
19 7 2 -0.834000 0.674000 -1.091000 -5.014000 # OT TIP3
20 7 1 0.417000 0.998000 -1.129000 -4.068000 # HT TIP3
21 7 1 0.417000 -0.252000 -0.730000 -4.925000 # HT TIP3
22 8 2 -0.834000 -9.998000 -4.333000 4.591000 # OT TIP3
23 8 1 0.417000 -9.517000 -4.010000 3.830000 # HT TIP3
24 8 1 0.417000 -9.392000 -4.219000 5.347000 # HT TIP3
25 9 2 -0.834000 -0.118000 -0.844000 4.916000 # OT TIP3
26 9 1 0.417000 -0.426000 -0.247000 5.597000 # HT TIP3
27 9 1 0.417000 0.021000 -1.736000 5.289000 # HT TIP3
28 10 2 -0.834000 -8.339000 -3.319000 -8.057000 # OT TIP3
29 10 1 0.417000 -8.057000 -4.261000 -8.019000 # HT TIP3
30 10 1 0.417000 -9.222000 -3.401000 -8.517000 # HT TIP3
31 11 2 -0.834000 0.426000 -2.396000 -7.596000 # OT TIP3
32 11 1 0.417000 0.761000 -1.599000 -8.006000 # HT TIP3
33 11 1 0.417000 0.248000 -2.111000 -6.692000 # HT TIP3
34 12 2 -0.834000 0.926000 -4.635000 -8.982000 # OT TIP3
35 12 1 0.417000 1.138000 -5.231000 -8.246000 # HT TIP3
36 12 1 0.417000 0.657000 -3.788000 -8.507000 # HT TIP3
37 13 2 -0.834000 -1.353000 -5.686000 9.278000 # OT TIP3
38 13 1 0.417000 -2.036000 -6.389000 9.326000 # HT TIP3
39 13 1 0.417000 -1.957000 -4.936000 9.153000 # HT TIP3
40 14 2 -0.834000 -5.701000 7.774000 -2.831000 # OT TIP3
41 14 1 0.417000 -6.697000 7.803000 -2.678000 # HT TIP3
42 14 1 0.417000 -5.467000 8.755000 -3.076000 # HT TIP3
43 15 2 -0.834000 -1.108000 2.977000 -4.679000 # OT TIP3
44 15 1 0.417000 -1.881000 2.478000 -4.557000 # HT TIP3
45 15 1 0.417000 -0.658000 2.557000 -5.464000 # HT TIP3
46 16 2 -0.834000 -7.826000 8.468000 -7.788000 # OT TIP3
47 16 1 0.417000 -7.368000 7.628000 -7.797000 # HT TIP3
48 16 1 0.417000 -7.069000 9.120000 -7.719000 # HT TIP3
49 17 2 -0.834000 3.612000 7.680000 8.622000 # OT TIP3
50 17 1 0.417000 3.744000 7.414000 9.508000 # HT TIP3
51 17 1 0.417000 4.526000 7.831000 8.347000 # HT TIP3
52 18 2 -0.834000 5.414000 -3.431000 -7.499000 # OT TIP3
53 18 1 0.417000 6.224000 -3.142000 -7.872000 # HT TIP3
54 18 1 0.417000 4.808000 -3.300000 -8.329000 # HT TIP3
55 19 2 -0.834000 -0.065000 2.876000 0.191000 # OT TIP3
56 19 1 0.417000 -0.291000 2.098000 -0.366000 # HT TIP3
57 19 1 0.417000 -0.528000 2.766000 1.018000 # HT TIP3
58 20 2 -0.834000 3.891000 -8.081000 -7.008000 # OT TIP3
59 20 1 0.417000 4.198000 -7.319000 -6.578000 # HT TIP3
60 20 1 0.417000 3.212000 -8.423000 -6.422000 # HT TIP3
61 21 2 -0.834000 -1.177000 0.581000 -1.173000 # OT TIP3
62 21 1 0.417000 -1.817000 0.753000 -1.852000 # HT TIP3
63 21 1 0.417000 -1.611000 0.061000 -0.466000 # HT TIP3
64 22 2 -0.834000 -0.922000 1.967000 2.734000 # OT TIP3
65 22 1 0.417000 -1.772000 1.561000 2.993000 # HT TIP3
66 22 1 0.417000 -0.488000 2.194000 3.560000 # HT TIP3
67 23 2 -0.834000 0.282000 -9.360000 -7.947000 # OT TIP3
68 23 1 0.417000 0.367000 -9.041000 -6.984000 # HT TIP3
69 23 1 0.417000 -0.257000 -8.677000 -8.333000 # HT TIP3
70 24 2 -0.834000 -5.382000 -1.875000 -2.223000 # OT TIP3
71 24 1 0.417000 -4.595000 -2.081000 -1.686000 # HT TIP3
72 24 1 0.417000 -5.998000 -1.542000 -1.578000 # HT TIP3
73 25 2 -0.834000 -6.597000 -5.313000 -0.185000 # OT TIP3
74 25 1 0.417000 -6.891000 -4.728000 -0.903000 # HT TIP3
75 25 1 0.417000 -6.183000 -6.027000 -0.673000 # HT TIP3
76 26 2 -0.834000 -6.724000 -2.535000 9.325000 # OT TIP3
77 26 1 0.417000 -7.228000 -3.009000 9.964000 # HT TIP3
78 26 1 0.417000 -6.396000 -1.712000 9.753000 # HT TIP3
79 27 2 -0.834000 -6.881000 0.325000 3.158000 # OT TIP3
80 27 1 0.417000 -6.402000 0.900000 2.512000 # HT TIP3
81 27 1 0.417000 -6.560000 -0.570000 2.962000 # HT TIP3
82 28 2 -0.834000 -7.622000 -4.194000 6.253000 # OT TIP3
83 28 1 0.417000 -7.843000 -3.839000 7.099000 # HT TIP3
84 28 1 0.417000 -6.699000 -3.968000 6.126000 # HT TIP3
85 29 2 -0.834000 -5.983000 -6.095000 9.418000 # OT TIP3
86 29 1 0.417000 -6.858000 -5.958000 9.132000 # HT TIP3
87 29 1 0.417000 -5.418000 -5.273000 9.295000 # HT TIP3
88 30 2 -0.834000 -4.427000 4.804000 9.090000 # OT TIP3
89 30 1 0.417000 -4.041000 5.339000 9.808000 # HT TIP3
90 30 1 0.417000 -4.131000 5.413000 8.331000 # HT TIP3
91 31 2 -0.834000 -4.542000 3.097000 -5.411000 # OT TIP3
92 31 1 0.417000 -4.327000 3.019000 -6.388000 # HT TIP3
93 31 1 0.417000 -5.101000 3.894000 -5.343000 # HT TIP3
94 32 2 -0.834000 -4.840000 3.744000 -2.046000 # OT TIP3
95 32 1 0.417000 -3.952000 3.422000 -1.793000 # HT TIP3
96 32 1 0.417000 -4.992000 4.493000 -1.472000 # HT TIP3
97 33 2 -0.834000 0.390000 -3.614000 8.828000 # OT TIP3
98 33 1 0.417000 0.688000 -3.516000 9.731000 # HT TIP3
99 33 1 0.417000 -0.156000 -4.411000 8.921000 # HT TIP3
100 34 2 -0.834000 -7.656000 0.571000 -7.376000 # OT TIP3
101 34 1 0.417000 -7.878000 0.753000 -6.447000 # HT TIP3
102 34 1 0.417000 -7.053000 -0.209000 -7.383000 # HT TIP3
103 35 2 -0.834000 -7.290000 -3.815000 -2.460000 # OT TIP3
104 35 1 0.417000 -7.533000 -3.764000 -3.439000 # HT TIP3
105 35 1 0.417000 -6.590000 -3.145000 -2.420000 # HT TIP3
106 36 2 -0.834000 0.929000 4.750000 -4.282000 # OT TIP3
107 36 1 0.417000 0.050000 4.541000 -4.592000 # HT TIP3
108 36 1 0.417000 1.401000 3.879000 -4.283000 # HT TIP3
109 37 2 -0.834000 -9.253000 -5.531000 0.579000 # OT TIP3
110 37 1 0.417000 -9.574000 -6.432000 0.339000 # HT TIP3
111 37 1 0.417000 -8.495000 -5.415000 -0.010000 # HT TIP3
112 38 2 -0.834000 -4.644000 -4.612000 6.046000 # OT TIP3
113 38 1 0.417000 -4.116000 -3.936000 6.461000 # HT TIP3
114 38 1 0.417000 -4.408000 -5.378000 6.537000 # HT TIP3
115 39 2 -0.834000 0.704000 -3.279000 5.883000 # OT TIP3
116 39 1 0.417000 0.901000 -3.088000 6.836000 # HT TIP3
117 39 1 0.417000 0.127000 -4.028000 5.998000 # HT TIP3
118 40 2 -0.834000 -2.973000 -7.776000 3.411000 # OT TIP3
119 40 1 0.417000 -3.815000 -7.199000 3.535000 # HT TIP3
120 40 1 0.417000 -3.308000 -8.597000 3.742000 # HT TIP3
121 41 2 -0.834000 7.812000 -4.229000 -4.124000 # OT TIP3
122 41 1 0.417000 7.220000 -3.684000 -4.620000 # HT TIP3
123 41 1 0.417000 7.551000 -5.131000 -4.331000 # HT TIP3
124 42 2 -0.834000 -5.972000 -2.301000 2.776000 # OT TIP3
125 42 1 0.417000 -5.423000 -2.807000 2.138000 # HT TIP3
126 42 1 0.417000 -6.829000 -2.680000 2.544000 # HT TIP3
127 43 2 -0.834000 2.493000 -0.549000 -7.785000 # OT TIP3
128 43 1 0.417000 2.908000 -0.160000 -7.013000 # HT TIP3
129 43 1 0.417000 2.982000 -1.359000 -7.961000 # HT TIP3
130 44 2 -0.834000 1.177000 -0.390000 -2.072000 # OT TIP3
131 44 1 0.417000 0.443000 0.172000 -1.947000 # HT TIP3
132 44 1 0.417000 0.866000 -1.212000 -1.702000 # HT TIP3
133 45 2 -0.834000 -8.162000 -6.794000 5.398000 # OT TIP3
134 45 1 0.417000 -7.799000 -5.919000 5.545000 # HT TIP3
135 45 1 0.417000 -7.883000 -7.001000 4.422000 # HT TIP3
136 46 2 -0.834000 6.133000 2.593000 6.908000 # OT TIP3
137 46 1 0.417000 5.352000 2.769000 6.391000 # HT TIP3
138 46 1 0.417000 5.887000 1.876000 7.511000 # HT TIP3
139 47 2 -0.834000 -8.101000 1.624000 7.893000 # OT TIP3
140 47 1 0.417000 -8.861000 1.678000 7.305000 # HT TIP3
141 47 1 0.417000 -7.742000 2.535000 7.855000 # HT TIP3
142 48 2 -0.834000 -0.780000 3.904000 7.340000 # OT TIP3
143 48 1 0.417000 0.062000 4.198000 7.738000 # HT TIP3
144 48 1 0.417000 -0.606000 2.999000 7.102000 # HT TIP3
145 49 2 -0.834000 8.441000 6.134000 -6.160000 # OT TIP3
146 49 1 0.417000 8.610000 6.488000 -7.032000 # HT TIP3
147 49 1 0.417000 9.113000 5.407000 -6.039000 # HT TIP3
148 50 2 -0.834000 5.430000 -6.726000 -2.593000 # OT TIP3
149 50 1 0.417000 5.458000 -7.259000 -1.843000 # HT TIP3
150 50 1 0.417000 5.933000 -7.260000 -3.230000 # HT TIP3
151 51 2 -0.834000 3.134000 -5.465000 -3.441000 # OT TIP3
152 51 1 0.417000 2.434000 -6.068000 -3.062000 # HT TIP3
153 51 1 0.417000 3.959000 -5.838000 -3.035000 # HT TIP3
154 52 2 -0.834000 0.295000 4.066000 4.320000 # OT TIP3
155 52 1 0.417000 0.592000 4.067000 5.226000 # HT TIP3
156 52 1 0.417000 -0.678000 4.226000 4.350000 # HT TIP3
157 53 2 -0.834000 6.008000 7.797000 1.410000 # OT TIP3
158 53 1 0.417000 6.695000 7.702000 0.684000 # HT TIP3
159 53 1 0.417000 5.186000 7.521000 0.942000 # HT TIP3
160 54 2 -0.834000 5.398000 -8.448000 8.246000 # OT TIP3
161 54 1 0.417000 6.016000 -8.049000 7.566000 # HT TIP3
162 54 1 0.417000 4.574000 -7.989000 8.109000 # HT TIP3
163 55 2 -0.834000 -2.170000 9.751000 -8.005000 # OT TIP3
164 55 1 0.417000 -2.743000 9.870000 -8.753000 # HT TIP3
165 55 1 0.417000 -1.671000 8.923000 -8.115000 # HT TIP3
166 56 2 -0.834000 5.027000 1.249000 -0.194000 # OT TIP3
167 56 1 0.417000 5.636000 0.953000 -0.896000 # HT TIP3
168 56 1 0.417000 4.929000 2.194000 -0.455000 # HT TIP3
169 57 2 -0.834000 -3.200000 6.659000 7.184000 # OT TIP3
170 57 1 0.417000 -2.857000 6.649000 6.327000 # HT TIP3
171 57 1 0.417000 -2.891000 7.502000 7.568000 # HT TIP3
172 58 2 -0.834000 4.603000 8.110000 -6.787000 # OT TIP3
173 58 1 0.417000 4.275000 7.655000 -6.037000 # HT TIP3
174 58 1 0.417000 3.842000 8.606000 -7.122000 # HT TIP3
175 59 2 -0.834000 -8.385000 7.355000 4.355000 # OT TIP3
176 59 1 0.417000 -8.775000 6.480000 4.420000 # HT TIP3
177 59 1 0.417000 -9.141000 7.984000 4.051000 # HT TIP3
178 60 2 -0.834000 -0.216000 8.060000 6.439000 # OT TIP3
179 60 1 0.417000 0.576000 8.166000 5.922000 # HT TIP3
180 60 1 0.417000 -0.059000 8.584000 7.234000 # HT TIP3
181 61 2 -0.834000 -7.631000 9.620000 0.838000 # OT TIP3
182 61 1 0.417000 -7.949000 9.425000 1.701000 # HT TIP3
183 61 1 0.417000 -6.653000 9.717000 0.923000 # HT TIP3
184 62 2 -0.834000 5.158000 5.218000 -8.547000 # OT TIP3
185 62 1 0.417000 5.286000 6.123000 -8.840000 # HT TIP3
186 62 1 0.417000 4.175000 5.219000 -8.413000 # HT TIP3
187 63 2 -0.834000 -2.071000 -0.399000 -5.678000 # OT TIP3
188 63 1 0.417000 -2.636000 0.340000 -6.088000 # HT TIP3
189 63 1 0.417000 -2.682000 -0.989000 -5.180000 # HT TIP3
190 64 2 -0.834000 -6.680000 -8.561000 -6.307000 # OT TIP3
191 64 1 0.417000 -6.982000 -8.737000 -7.205000 # HT TIP3
192 64 1 0.417000 -5.782000 -8.263000 -6.467000 # HT TIP3
193 65 2 -0.834000 6.096000 -1.595000 0.628000 # OT TIP3
194 65 1 0.417000 6.085000 -0.610000 0.715000 # HT TIP3
195 65 1 0.417000 6.077000 -1.652000 -0.379000 # HT TIP3
196 66 2 -0.834000 8.479000 -6.911000 -8.622000 # OT TIP3
197 66 1 0.417000 7.536000 -6.792000 -8.426000 # HT TIP3
198 66 1 0.417000 8.602000 -7.860000 -8.803000 # HT TIP3
199 67 2 -0.834000 5.529000 -4.018000 -1.481000 # OT TIP3
200 67 1 0.417000 6.398000 -4.368000 -1.188000 # HT TIP3
201 67 1 0.417000 5.223000 -4.667000 -2.133000 # HT TIP3
202 68 2 -0.834000 -5.461000 -7.395000 -1.705000 # OT TIP3
203 68 1 0.417000 -4.540000 -7.298000 -1.877000 # HT TIP3
204 68 1 0.417000 -5.566000 -8.384000 -1.637000 # HT TIP3
205 69 2 -0.834000 8.350000 -3.022000 7.615000 # OT TIP3
206 69 1 0.417000 8.415000 -2.709000 6.702000 # HT TIP3
207 69 1 0.417000 7.398000 -2.841000 7.784000 # HT TIP3
208 70 2 -0.834000 9.399000 2.364000 -8.020000 # OT TIP3
209 70 1 0.417000 9.715000 1.499000 -8.402000 # HT TIP3
210 70 1 0.417000 9.091000 2.059000 -7.154000 # HT TIP3
211 71 2 -0.834000 2.793000 3.364000 2.168000 # OT TIP3
212 71 1 0.417000 2.787000 3.548000 1.223000 # HT TIP3
213 71 1 0.417000 1.995000 3.794000 2.399000 # HT TIP3
214 72 2 -0.834000 -3.333000 -2.453000 -0.354000 # OT TIP3
215 72 1 0.417000 -3.897000 -3.025000 0.296000 # HT TIP3
216 72 1 0.417000 -2.442000 -2.708000 0.046000 # HT TIP3
217 73 2 -0.834000 0.129000 7.485000 -3.450000 # OT TIP3
218 73 1 0.417000 -0.769000 7.467000 -3.080000 # HT TIP3
219 73 1 0.417000 0.108000 6.702000 -4.015000 # HT TIP3
220 74 2 -0.834000 -5.346000 -4.283000 -4.977000 # OT TIP3
221 74 1 0.417000 -4.941000 -4.874000 -5.605000 # HT TIP3
222 74 1 0.417000 -4.591000 -4.215000 -4.366000 # HT TIP3
223 75 2 -0.834000 2.336000 4.905000 -0.650000 # OT TIP3
224 75 1 0.417000 1.849000 5.588000 -1.117000 # HT TIP3
225 75 1 0.417000 1.568000 4.375000 -0.230000 # HT TIP3
226 76 2 -0.834000 -4.512000 4.255000 3.212000 # OT TIP3
227 76 1 0.417000 -3.721000 4.126000 3.709000 # HT TIP3
228 76 1 0.417000 -5.136000 3.991000 3.878000 # HT TIP3
229 77 2 -0.834000 -6.314000 -1.647000 -6.599000 # OT TIP3
230 77 1 0.417000 -5.506000 -2.070000 -6.916000 # HT TIP3
231 77 1 0.417000 -6.959000 -2.273000 -6.803000 # HT TIP3
232 78 2 -0.834000 5.005000 4.526000 9.133000 # OT TIP3
233 78 1 0.417000 5.742000 3.941000 9.238000 # HT TIP3
234 78 1 0.417000 4.746000 4.453000 8.188000 # HT TIP3
235 79 2 -0.834000 5.427000 3.899000 3.418000 # OT TIP3
236 79 1 0.417000 5.598000 4.703000 3.915000 # HT TIP3
237 79 1 0.417000 4.569000 4.032000 2.994000 # HT TIP3
238 80 2 -0.834000 5.117000 6.342000 5.320000 # OT TIP3
239 80 1 0.417000 4.190000 6.658000 5.235000 # HT TIP3
240 80 1 0.417000 5.725000 7.080000 4.950000 # HT TIP3
241 81 2 -0.834000 0.030000 1.441000 -6.566000 # OT TIP3
242 81 1 0.417000 -0.726000 0.827000 -6.578000 # HT TIP3
243 81 1 0.417000 0.533000 1.362000 -7.339000 # HT TIP3
244 82 2 -0.834000 0.550000 -0.456000 1.315000 # OT TIP3
245 82 1 0.417000 0.055000 0.343000 1.396000 # HT TIP3
246 82 1 0.417000 1.460000 -0.154000 1.337000 # HT TIP3
247 83 2 -0.834000 7.196000 8.038000 3.777000 # OT TIP3
248 83 1 0.417000 7.492000 7.085000 3.750000 # HT TIP3
249 83 1 0.417000 6.868000 8.082000 2.855000 # HT TIP3
250 84 2 -0.834000 3.068000 -7.086000 0.149000 # OT TIP3
251 84 1 0.417000 2.803000 -7.527000 -0.705000 # HT TIP3
252 84 1 0.417000 4.010000 -7.151000 0.112000 # HT TIP3
253 85 2 -0.834000 -4.550000 -0.933000 -4.663000 # OT TIP3
254 85 1 0.417000 -5.278000 -1.160000 -5.289000 # HT TIP3
255 85 1 0.417000 -5.061000 -1.230000 -3.883000 # HT TIP3
256 86 2 -0.834000 -6.703000 8.771000 7.303000 # OT TIP3
257 86 1 0.417000 -6.087000 9.272000 7.825000 # HT TIP3
258 86 1 0.417000 -6.384000 8.935000 6.408000 # HT TIP3
259 87 2 -0.834000 -8.557000 -6.020000 8.627000 # OT TIP3
260 87 1 0.417000 -8.464000 -6.950000 8.247000 # HT TIP3
261 87 1 0.417000 -9.411000 -5.718000 8.256000 # HT TIP3
262 88 2 -0.834000 -1.057000 9.607000 -0.607000 # OT TIP3
263 88 1 0.417000 -0.110000 9.666000 -0.826000 # HT TIP3
264 88 1 0.417000 -1.449000 9.202000 -1.414000 # HT TIP3
265 89 2 -0.834000 3.340000 3.560000 6.477000 # OT TIP3
266 89 1 0.417000 3.400000 3.568000 5.542000 # HT TIP3
267 89 1 0.417000 2.852000 4.406000 6.633000 # HT TIP3
268 90 2 -0.834000 4.403000 -2.185000 5.212000 # OT TIP3
269 90 1 0.417000 3.532000 -1.794000 4.911000 # HT TIP3
270 90 1 0.417000 4.885000 -2.319000 4.373000 # HT TIP3
271 91 2 -0.834000 -3.143000 1.138000 -3.171000 # OT TIP3
272 91 1 0.417000 -3.893000 1.750000 -3.200000 # HT TIP3
273 91 1 0.417000 -3.520000 0.387000 -3.647000 # HT TIP3
274 92 2 -0.834000 2.113000 -9.079000 -5.058000 # OT TIP3
275 92 1 0.417000 2.819000 -9.365000 -4.438000 # HT TIP3
276 92 1 0.417000 1.814000 -8.104000 -4.777000 # HT TIP3
277 93 2 -0.834000 -0.803000 -5.625000 5.964000 # OT TIP3
278 93 1 0.417000 -0.837000 -6.410000 5.387000 # HT TIP3
279 93 1 0.417000 -1.484000 -5.833000 6.604000 # HT TIP3
280 94 2 -0.834000 -7.579000 -6.225000 -4.942000 # OT TIP3
281 94 1 0.417000 -7.316000 -7.066000 -5.348000 # HT TIP3
282 94 1 0.417000 -6.781000 -5.660000 -4.952000 # HT TIP3
283 95 2 -0.834000 1.518000 -7.859000 4.835000 # OT TIP3
284 95 1 0.417000 1.356000 -7.231000 4.101000 # HT TIP3
285 95 1 0.417000 2.345000 -8.273000 4.583000 # HT TIP3
286 96 2 -0.834000 -6.826000 -8.416000 6.976000 # OT TIP3
287 96 1 0.417000 -7.630000 -7.923000 6.810000 # HT TIP3
288 96 1 0.417000 -6.730000 -9.039000 6.252000 # HT TIP3
289 97 2 -0.834000 0.848000 0.071000 8.631000 # OT TIP3
290 97 1 0.417000 0.345000 0.477000 7.907000 # HT TIP3
291 97 1 0.417000 1.663000 0.551000 8.638000 # HT TIP3
292 98 2 -0.834000 -4.859000 -8.389000 -9.501000 # OT TIP3
293 98 1 0.417000 -5.303000 -8.890000 -8.766000 # HT TIP3
294 98 1 0.417000 -3.969000 -8.698000 -9.414000 # HT TIP3
295 99 2 -0.834000 7.931000 4.372000 1.594000 # OT TIP3
296 99 1 0.417000 7.010000 4.424000 1.287000 # HT TIP3
297 99 1 0.417000 7.926000 4.956000 2.399000 # HT TIP3
298 100 2 -0.834000 -7.491000 -6.495000 2.910000 # OT TIP3
299 100 1 0.417000 -7.886000 -5.862000 2.315000 # HT TIP3
300 100 1 0.417000 -7.285000 -7.288000 2.383000 # HT TIP3
301 101 2 -0.834000 4.354000 -8.648000 4.004000 # OT TIP3
302 101 1 0.417000 4.694000 -9.377000 4.565000 # HT TIP3
303 101 1 0.417000 4.573000 -7.805000 4.426000 # HT TIP3
304 102 2 -0.834000 -4.539000 -3.246000 -8.057000 # OT TIP3
305 102 1 0.417000 -3.588000 -3.373000 -7.982000 # HT TIP3
306 102 1 0.417000 -4.791000 -4.044000 -8.566000 # HT TIP3
307 103 2 -0.834000 8.063000 4.437000 6.912000 # OT TIP3
308 103 1 0.417000 8.739000 3.888000 7.373000 # HT TIP3
309 103 1 0.417000 7.184000 3.977000 6.958000 # HT TIP3
310 104 2 -0.834000 -3.858000 1.858000 6.052000 # OT TIP3
311 104 1 0.417000 -4.238000 2.642000 5.675000 # HT TIP3
312 104 1 0.417000 -4.434000 1.146000 5.661000 # HT TIP3
313 105 2 -0.834000 1.187000 9.104000 8.681000 # OT TIP3
314 105 1 0.417000 2.029000 8.566000 8.863000 # HT TIP3
315 105 1 0.417000 0.574000 8.773000 9.364000 # HT TIP3
316 106 2 -0.834000 1.780000 3.509000 -9.017000 # OT TIP3
317 106 1 0.417000 2.311000 3.422000 -8.206000 # HT TIP3
318 106 1 0.417000 2.379000 3.816000 -9.700000 # HT TIP3
319 107 2 -0.834000 3.410000 3.796000 -6.794000 # OT TIP3
320 107 1 0.417000 2.860000 3.342000 -6.048000 # HT TIP3
321 107 1 0.417000 4.378000 3.624000 -6.514000 # HT TIP3
322 108 2 -0.834000 -2.686000 -9.772000 -0.848000 # OT TIP3
323 108 1 0.417000 -2.553000 -9.804000 -1.843000 # HT TIP3
324 108 1 0.417000 -1.781000 -9.664000 -0.574000 # HT TIP3
325 109 2 -0.834000 -9.711000 0.538000 3.468000 # OT TIP3
326 109 1 0.417000 -9.714000 0.937000 2.602000 # HT TIP3
327 109 1 0.417000 -8.738000 0.357000 3.669000 # HT TIP3
328 110 2 -0.834000 6.214000 -2.153000 -5.234000 # OT TIP3
329 110 1 0.417000 5.254000 -2.008000 -4.839000 # HT TIP3
330 110 1 0.417000 5.905000 -2.608000 -6.004000 # HT TIP3
331 111 2 -0.834000 2.440000 2.407000 -4.630000 # OT TIP3
332 111 1 0.417000 1.652000 1.887000 -4.895000 # HT TIP3
333 111 1 0.417000 2.893000 1.867000 -4.023000 # HT TIP3
334 112 2 -0.834000 -3.032000 1.629000 -7.647000 # OT TIP3
335 112 1 0.417000 -3.425000 0.896000 -8.193000 # HT TIP3
336 112 1 0.417000 -2.917000 2.290000 -8.410000 # HT TIP3
337 113 2 -0.834000 3.533000 0.550000 -2.840000 # OT TIP3
338 113 1 0.417000 2.608000 0.309000 -2.510000 # HT TIP3
339 113 1 0.417000 4.008000 0.940000 -2.075000 # HT TIP3
340 114 2 -0.834000 1.706000 5.811000 6.829000 # OT TIP3
341 114 1 0.417000 0.892000 6.347000 6.590000 # HT TIP3
342 114 1 0.417000 2.344000 6.466000 7.162000 # HT TIP3
343 115 2 -0.834000 1.642000 9.030000 -5.134000 # OT TIP3
344 115 1 0.417000 0.752000 8.786000 -4.791000 # HT TIP3
345 115 1 0.417000 1.534000 9.147000 -6.103000 # HT TIP3
346 116 2 -0.834000 2.814000 7.906000 -2.617000 # OT TIP3
347 116 1 0.417000 3.379000 7.410000 -3.312000 # HT TIP3
348 116 1 0.417000 1.963000 7.994000 -3.046000 # HT TIP3
349 117 2 -0.834000 0.963000 -8.263000 1.790000 # OT TIP3
350 117 1 0.417000 0.319000 -7.760000 1.334000 # HT TIP3
351 117 1 0.417000 1.709000 -7.833000 1.210000 # HT TIP3
352 118 2 -0.834000 -4.474000 -1.631000 4.858000 # OT TIP3
353 118 1 0.417000 -5.050000 -1.782000 4.072000 # HT TIP3
354 118 1 0.417000 -5.055000 -1.081000 5.363000 # HT TIP3
355 119 2 -0.834000 4.776000 -5.061000 2.443000 # OT TIP3
356 119 1 0.417000 4.636000 -4.048000 2.252000 # HT TIP3
357 119 1 0.417000 3.865000 -5.288000 2.604000 # HT TIP3
358 120 2 -0.834000 -2.471000 -5.492000 -8.604000 # OT TIP3
359 120 1 0.417000 -1.687000 -5.418000 -9.143000 # HT TIP3
360 120 1 0.417000 -3.217000 -5.489000 -9.232000 # HT TIP3
361 121 2 -0.834000 9.008000 -7.803000 9.861000 # OT TIP3
362 121 1 0.417000 8.936000 -6.914000 9.425000 # HT TIP3
363 121 1 0.417000 9.532000 -8.289000 9.161000 # HT TIP3
364 122 2 -0.834000 1.200000 -5.849000 -6.529000 # OT TIP3
365 122 1 0.417000 2.053000 -5.640000 -6.072000 # HT TIP3
366 122 1 0.417000 0.572000 -5.574000 -5.862000 # HT TIP3
367 123 2 -0.834000 -5.116000 -5.919000 3.713000 # OT TIP3
368 123 1 0.417000 -5.030000 -5.254000 4.373000 # HT TIP3
369 123 1 0.417000 -6.068000 -6.025000 3.593000 # HT TIP3
370 124 2 -0.834000 3.867000 -5.376000 -6.046000 # OT TIP3
371 124 1 0.417000 4.067000 -5.359000 -5.096000 # HT TIP3
372 124 1 0.417000 4.122000 -4.506000 -6.352000 # HT TIP3
373 125 2 -0.834000 7.422000 -6.600000 -5.798000 # OT TIP3
374 125 1 0.417000 8.195000 -6.566000 -6.402000 # HT TIP3
375 125 1 0.417000 7.397000 -7.575000 -5.593000 # HT TIP3
376 126 2 -0.834000 6.691000 7.916000 -3.241000 # OT TIP3
377 126 1 0.417000 6.406000 8.553000 -3.908000 # HT TIP3
378 126 1 0.417000 6.815000 8.526000 -2.418000 # HT TIP3
379 127 2 -0.834000 8.193000 7.970000 -0.250000 # OT TIP3
380 127 1 0.417000 7.958000 8.911000 -0.167000 # HT TIP3
381 127 1 0.417000 9.151000 7.990000 -0.353000 # HT TIP3
382 128 2 -0.834000 7.427000 -1.540000 5.062000 # OT TIP3
383 128 1 0.417000 6.459000 -1.477000 5.043000 # HT TIP3
384 128 1 0.417000 7.637000 -2.231000 4.388000 # HT TIP3
385 129 2 -0.834000 -6.826000 1.159000 -4.046000 # OT TIP3
386 129 1 0.417000 -6.096000 1.073000 -4.648000 # HT TIP3
387 129 1 0.417000 -6.796000 2.104000 -3.871000 # HT TIP3
388 130 2 -0.834000 2.922000 -7.089000 7.412000 # OT TIP3
389 130 1 0.417000 2.421000 -7.569000 8.089000 # HT TIP3
390 130 1 0.417000 2.240000 -7.004000 6.701000 # HT TIP3
391 131 2 -0.834000 -3.388000 -6.604000 7.042000 # OT TIP3
392 131 1 0.417000 -3.862000 -7.013000 7.830000 # HT TIP3
393 131 1 0.417000 -3.752000 -7.117000 6.306000 # HT TIP3
394 132 2 -0.834000 -6.372000 5.453000 -0.316000 # OT TIP3
395 132 1 0.417000 -6.396000 6.368000 -0.635000 # HT TIP3
396 132 1 0.417000 -6.734000 5.478000 0.592000 # HT TIP3
397 133 2 -0.834000 -8.359000 8.264000 -1.864000 # OT TIP3
398 133 1 0.417000 -9.245000 8.490000 -1.992000 # HT TIP3
399 133 1 0.417000 -8.019000 9.003000 -1.335000 # HT TIP3
400 134 2 -0.834000 4.269000 0.001000 -5.631000 # OT TIP3
401 134 1 0.417000 4.973000 0.528000 -5.248000 # HT TIP3
402 134 1 0.417000 3.690000 -0.141000 -4.908000 # HT TIP3
403 135 2 -0.834000 4.691000 3.817000 -0.950000 # OT TIP3
404 135 1 0.417000 5.162000 4.372000 -1.615000 # HT TIP3
405 135 1 0.417000 3.821000 4.250000 -0.887000 # HT TIP3
406 136 2 -0.834000 2.273000 -4.576000 0.404000 # OT TIP3
407 136 1 0.417000 2.384000 -5.528000 0.210000 # HT TIP3
408 136 1 0.417000 3.153000 -4.286000 0.501000 # HT TIP3
409 137 2 -0.834000 -6.241000 3.253000 5.143000 # OT TIP3
410 137 1 0.417000 -6.448000 3.546000 6.059000 # HT TIP3
411 137 1 0.417000 -7.138000 3.321000 4.740000 # HT TIP3
412 138 2 -0.834000 -2.681000 4.432000 5.015000 # OT TIP3
413 138 1 0.417000 -2.367000 5.319000 4.742000 # HT TIP3
414 138 1 0.417000 -2.298000 4.303000 5.933000 # HT TIP3
415 139 2 -0.834000 7.290000 9.292000 -7.641000 # OT TIP3
416 139 1 0.417000 7.571000 8.413000 -7.928000 # HT TIP3
417 139 1 0.417000 7.248000 9.245000 -6.654000 # HT TIP3
418 140 2 -0.834000 9.066000 6.468000 -3.203000 # OT TIP3
419 140 1 0.417000 8.300000 6.930000 -2.811000 # HT TIP3
420 140 1 0.417000 8.744000 6.292000 -4.117000 # HT TIP3
421 141 2 -0.834000 -6.883000 1.819000 0.070000 # OT TIP3
422 141 1 0.417000 -6.510000 2.496000 -0.477000 # HT TIP3
423 141 1 0.417000 -6.063000 1.583000 0.539000 # HT TIP3
424 142 2 -0.834000 -9.451000 6.393000 0.366000 # OT TIP3
425 142 1 0.417000 -8.708000 6.322000 1.016000 # HT TIP3
426 142 1 0.417000 -9.335000 7.283000 -0.028000 # HT TIP3
427 143 2 -0.834000 7.347000 -3.106000 2.710000 # OT TIP3
428 143 1 0.417000 7.035000 -2.719000 1.931000 # HT TIP3
429 143 1 0.417000 7.688000 -3.953000 2.386000 # HT TIP3
430 144 2 -0.834000 5.811000 5.289000 -2.800000 # OT TIP3
431 144 1 0.417000 5.614000 4.969000 -3.691000 # HT TIP3
432 144 1 0.417000 6.024000 6.198000 -3.013000 # HT TIP3
433 145 2 -0.834000 8.327000 -9.625000 1.458000 # OT TIP3
434 145 1 0.417000 8.825000 -9.859000 2.294000 # HT TIP3
435 145 1 0.417000 8.403000 -8.634000 1.380000 # HT TIP3
436 146 2 -0.834000 0.050000 -4.395000 -4.242000 # OT TIP3
437 146 1 0.417000 0.155000 -3.446000 -4.444000 # HT TIP3
438 146 1 0.417000 0.797000 -4.611000 -3.691000 # HT TIP3
439 147 2 -0.834000 -2.119000 -6.482000 -4.300000 # OT TIP3
440 147 1 0.417000 -1.450000 -5.775000 -4.188000 # HT TIP3
441 147 1 0.417000 -2.930000 -6.166000 -3.831000 # HT TIP3
442 148 2 -0.834000 -1.441000 -6.485000 1.535000 # OT TIP3
443 148 1 0.417000 -1.565000 -5.702000 2.155000 # HT TIP3
444 148 1 0.417000 -2.045000 -7.101000 1.952000 # HT TIP3
445 149 2 -0.834000 3.039000 0.511000 1.777000 # OT TIP3
446 149 1 0.417000 3.825000 0.589000 1.282000 # HT TIP3
447 149 1 0.417000 2.883000 1.473000 1.916000 # HT TIP3
448 150 2 -0.834000 8.189000 -5.418000 8.849000 # OT TIP3
449 150 1 0.417000 7.592000 -5.228000 9.591000 # HT TIP3
450 150 1 0.417000 8.462000 -4.571000 8.518000 # HT TIP3
451 151 2 -0.834000 5.316000 -6.024000 5.033000 # OT TIP3
452 151 1 0.417000 5.353000 -5.735000 4.065000 # HT TIP3
453 151 1 0.417000 4.585000 -5.467000 5.460000 # HT TIP3
454 152 2 -0.834000 -1.600000 -4.448000 3.557000 # OT TIP3
455 152 1 0.417000 -0.930000 -4.760000 4.185000 # HT TIP3
456 152 1 0.417000 -2.261000 -4.055000 4.163000 # HT TIP3
457 153 2 -0.834000 3.870000 -2.526000 2.187000 # OT TIP3
458 153 1 0.417000 3.209000 -1.927000 2.633000 # HT TIP3
459 153 1 0.417000 4.457000 -1.971000 1.659000 # HT TIP3
460 154 2 -0.834000 3.600000 7.247000 -0.002000 # OT TIP3
461 154 1 0.417000 3.256000 6.385000 0.107000 # HT TIP3
462 154 1 0.417000 3.616000 7.337000 -0.953000 # HT TIP3
463 155 2 -0.834000 5.465000 -2.045000 7.814000 # OT TIP3
464 155 1 0.417000 5.150000 -2.021000 6.932000 # HT TIP3
465 155 1 0.417000 4.706000 -2.437000 8.306000 # HT TIP3
466 156 2 -0.834000 -0.984000 -5.914000 -1.186000 # OT TIP3
467 156 1 0.417000 -0.623000 -4.999000 -1.187000 # HT TIP3
468 156 1 0.417000 -1.274000 -6.259000 -0.339000 # HT TIP3
469 157 2 -0.834000 9.455000 -8.744000 6.817000 # OT TIP3
470 157 1 0.417000 9.976000 -8.253000 6.255000 # HT TIP3
471 157 1 0.417000 8.570000 -8.359000 6.719000 # HT TIP3
472 158 2 -0.834000 8.953000 -7.050000 3.144000 # OT TIP3
473 158 1 0.417000 8.909000 -6.614000 4.019000 # HT TIP3
474 158 1 0.417000 9.636000 -7.660000 3.342000 # HT TIP3
475 159 2 -0.834000 -3.561000 -4.856000 -2.545000 # OT TIP3
476 159 1 0.417000 -2.690000 -5.164000 -2.163000 # HT TIP3
477 159 1 0.417000 -3.879000 -4.181000 -1.884000 # HT TIP3
478 160 2 -0.834000 8.651000 -5.351000 -1.579000 # OT TIP3
479 160 1 0.417000 9.326000 -4.678000 -1.432000 # HT TIP3
480 160 1 0.417000 8.363000 -5.256000 -2.507000 # HT TIP3
481 161 2 -0.834000 9.393000 -4.241000 -8.315000 # OT TIP3
482 161 1 0.417000 9.002000 -5.112000 -8.282000 # HT TIP3
483 161 1 0.417000 9.316000 -3.918000 -7.414000 # HT TIP3
484 162 2 -0.834000 8.637000 -1.010000 -5.384000 # OT TIP3
485 162 1 0.417000 7.786000 -1.379000 -5.487000 # HT TIP3
486 162 1 0.417000 8.594000 -0.067000 -5.375000 # HT TIP3
487 163 2 -0.834000 8.410000 -8.027000 -1.420000 # OT TIP3
488 163 1 0.417000 8.658000 -7.085000 -1.477000 # HT TIP3
489 163 1 0.417000 8.788000 -8.433000 -2.250000 # HT TIP3
490 164 2 -0.834000 7.791000 2.260000 -5.255000 # OT TIP3
491 164 1 0.417000 7.329000 3.095000 -5.387000 # HT TIP3
492 164 1 0.417000 8.004000 2.302000 -4.372000 # HT TIP3
493 165 2 -0.834000 2.076000 -5.355000 3.566000 # OT TIP3
494 165 1 0.417000 2.000000 -4.478000 3.148000 # HT TIP3
495 165 1 0.417000 1.827000 -5.165000 4.443000 # HT TIP3
496 166 2 -0.834000 -0.869000 -8.925000 5.841000 # OT TIP3
497 166 1 0.417000 -0.052000 -8.537000 5.412000 # HT TIP3
498 166 1 0.417000 -0.887000 -9.839000 5.464000 # HT TIP3
499 167 2 -0.834000 -2.306000 -1.662000 6.687000 # OT TIP3
500 167 1 0.417000 -2.677000 -1.919000 7.508000 # HT TIP3
501 167 1 0.417000 -3.009000 -1.524000 6.072000 # HT TIP3
502 168 2 -0.834000 7.055000 2.939000 9.753000 # OT TIP3
503 168 1 0.417000 7.039000 1.961000 9.550000 # HT TIP3
504 168 1 0.417000 8.010000 3.129000 9.544000 # HT TIP3
505 169 2 -0.834000 8.790000 9.328000 9.104000 # OT TIP3
506 169 1 0.417000 8.264000 9.272000 9.886000 # HT TIP3
507 169 1 0.417000 8.586000 8.528000 8.598000 # HT TIP3
508 170 2 -0.834000 5.742000 -8.175000 -0.226000 # OT TIP3
509 170 1 0.417000 6.699000 -8.446000 -0.271000 # HT TIP3
510 170 1 0.417000 5.249000 -8.826000 0.371000 # HT TIP3
511 171 2 -0.834000 6.570000 3.123000 -8.044000 # OT TIP3
512 171 1 0.417000 7.480000 3.021000 -8.452000 # HT TIP3
513 171 1 0.417000 6.282000 4.096000 -8.338000 # HT TIP3
514 172 2 -0.834000 1.316000 -7.727000 -2.044000 # OT TIP3
515 172 1 0.417000 1.391000 -8.642000 -1.849000 # HT TIP3
516 172 1 0.417000 0.423000 -7.521000 -1.819000 # HT TIP3
517 173 2 -0.834000 8.338000 0.970000 0.119000 # OT TIP3
518 173 1 0.417000 9.088000 0.563000 0.532000 # HT TIP3
519 173 1 0.417000 8.311000 0.591000 -0.783000 # HT TIP3