LAMMPS data file. CGCMM style. atom_style full generated by VMD/TopoTools v1.5 on Tue Dec 13 16:16:48 CET 2016
 2478 atoms
 1652 bonds
 826 angles
 0 dihedrals
 0 impropers
 2 atom types
 1 bond types
 1 angle types
 0 dihedral types
 0 improper types
 -15.112500 14.887500  xlo xhi
 -15.039000 14.961000  ylo yhi
 -14.898500 15.101500  zlo zhi


 Masses

 1 1.007940 # HT
 2 15.999400 # OT

 Atoms

1 1 2 -0.834000 -11.332000 -4.918000 0.904000 # OT TIP3
2 1 1 0.417000 -11.776000 -4.549000 0.101000 # HT TIP3
3 1 1 0.417000 -11.908000 -4.621000 1.627000 # HT TIP3
4 2 2 -0.834000 -8.967000 -10.124000 5.891000 # OT TIP3
5 2 1 0.417000 -8.922000 -9.776000 6.798000 # HT TIP3
6 2 1 0.417000 -8.408000 -10.912000 5.961000 # HT TIP3
7 3 2 -0.834000 -10.431000 -11.040000 14.887000 # OT TIP3
8 3 1 0.417000 -11.041000 -11.840000 14.980000 # HT TIP3
9 3 1 0.417000 -11.005000 -10.345000 14.422000 # HT TIP3
10 4 2 -0.834000 -9.814000 1.696000 -2.928000 # OT TIP3
11 4 1 0.417000 -8.917000 1.979000 -3.184000 # HT TIP3
12 4 1 0.417000 -9.663000 0.832000 -2.510000 # HT TIP3
13 5 2 -0.834000 -6.676000 -1.189000 6.332000 # OT TIP3
14 5 1 0.417000 -6.367000 -1.652000 7.112000 # HT TIP3
15 5 1 0.417000 -6.494000 -1.884000 5.645000 # HT TIP3
16 6 2 -0.834000 -11.214000 1.318000 -13.690000 # OT TIP3
17 6 1 0.417000 -11.219000 0.388000 -13.804000 # HT TIP3
18 6 1 0.417000 -10.472000 1.580000 -14.219000 # HT TIP3
19 7 2 -0.834000 -8.795000 -8.009000 3.442000 # OT TIP3
20 7 1 0.417000 -8.218000 -7.653000 4.152000 # HT TIP3
21 7 1 0.417000 -9.691000 -7.938000 3.800000 # HT TIP3
22 8 2 -0.834000 1.126000 -0.299000 -10.423000 # OT TIP3
23 8 1 0.417000 1.070000 -0.728000 -11.274000 # HT TIP3
24 8 1 0.417000 1.805000 0.454000 -10.555000 # HT TIP3
25 9 2 -0.834000 -12.250000 -6.156000 -5.371000 # OT TIP3
26 9 1 0.417000 -12.890000 -6.710000 -5.002000 # HT TIP3
27 9 1 0.417000 -12.836000 -5.755000 -6.038000 # HT TIP3
28 10 2 -0.834000 -11.065000 1.195000 7.109000 # OT TIP3
29 10 1 0.417000 -10.130000 1.034000 6.985000 # HT TIP3
30 10 1 0.417000 -11.345000 0.367000 7.581000 # HT TIP3
31 11 2 -0.834000 -12.009000 -3.838000 12.860000 # OT TIP3
32 11 1 0.417000 -11.406000 -4.032000 12.129000 # HT TIP3
33 11 1 0.417000 -12.586000 -3.225000 12.430000 # HT TIP3
34 12 2 -0.834000 -10.760000 -7.963000 12.081000 # OT TIP3
35 12 1 0.417000 -10.344000 -7.169000 11.658000 # HT TIP3
36 12 1 0.417000 -11.214000 -7.572000 12.812000 # HT TIP3
37 13 2 -0.834000 -4.326000 -6.091000 -10.014000 # OT TIP3
38 13 1 0.417000 -4.002000 -6.129000 -9.068000 # HT TIP3
39 13 1 0.417000 -5.252000 -5.730000 -9.925000 # HT TIP3
40 14 2 -0.834000 -14.998000 -9.333000 -0.409000 # OT TIP3
41 14 1 0.417000 -14.517000 -9.010000 -1.170000 # HT TIP3
42 14 1 0.417000 -14.392000 -9.219000 0.347000 # HT TIP3
43 15 2 -0.834000 -5.118000 -5.844000 -0.084000 # OT TIP3
44 15 1 0.417000 -5.426000 -5.247000 0.597000 # HT TIP3
45 15 1 0.417000 -4.979000 -6.736000 0.289000 # HT TIP3
46 16 2 -0.834000 -8.684000 -9.712000 12.495000 # OT TIP3
47 16 1 0.417000 -8.360000 -9.369000 13.363000 # HT TIP3
48 16 1 0.417000 -9.437000 -9.148000 12.280000 # HT TIP3
49 17 2 -0.834000 -2.111000 14.660000 -5.913000 # OT TIP3
50 17 1 0.417000 -2.422000 14.796000 -5.025000 # HT TIP3
51 17 1 0.417000 -1.236000 14.337000 -5.788000 # HT TIP3
52 18 2 -0.834000 -13.339000 -8.319000 -13.057000 # OT TIP3
53 18 1 0.417000 -13.057000 -9.261000 -13.019000 # HT TIP3
54 18 1 0.417000 -14.222000 -8.401000 -13.517000 # HT TIP3
55 19 2 -0.834000 -10.179000 5.603000 -3.761000 # OT TIP3
56 19 1 0.417000 -9.534000 5.782000 -3.037000 # HT TIP3
57 19 1 0.417000 -9.616000 5.914000 -4.544000 # HT TIP3
58 20 2 -0.834000 0.022000 5.855000 -2.169000 # OT TIP3
59 20 1 0.417000 -0.778000 5.809000 -1.708000 # HT TIP3
60 20 1 0.417000 -0.327000 6.057000 -3.082000 # HT TIP3
61 21 2 -0.834000 -13.661000 -11.218000 7.814000 # OT TIP3
62 21 1 0.417000 -14.161000 -11.575000 7.087000 # HT TIP3
63 21 1 0.417000 -13.225000 -11.923000 8.138000 # HT TIP3
64 22 2 -0.834000 -14.515000 0.137000 7.476000 # OT TIP3
65 22 1 0.417000 -14.356000 0.425000 8.349000 # HT TIP3
66 22 1 0.417000 -14.688000 0.961000 6.975000 # HT TIP3
67 23 2 -0.834000 -9.392000 8.918000 -2.041000 # OT TIP3
68 23 1 0.417000 -10.160000 8.622000 -2.455000 # HT TIP3
69 23 1 0.417000 -8.963000 9.336000 -2.792000 # HT TIP3
70 24 2 -0.834000 -4.574000 -7.396000 -12.596000 # OT TIP3
71 24 1 0.417000 -4.239000 -6.599000 -13.006000 # HT TIP3
72 24 1 0.417000 -4.752000 -7.111000 -11.692000 # HT TIP3
73 25 2 -0.834000 -6.431000 10.684000 -2.789000 # OT TIP3
74 25 1 0.417000 -5.877000 10.542000 -1.985000 # HT TIP3
75 25 1 0.417000 -6.195000 11.595000 -3.073000 # HT TIP3
76 26 2 -0.834000 -10.731000 7.752000 1.265000 # OT TIP3
77 26 1 0.417000 -10.851000 8.680000 0.888000 # HT TIP3
78 26 1 0.417000 -9.939000 7.796000 1.776000 # HT TIP3
79 27 2 -0.834000 -11.401000 -1.311000 8.583000 # OT TIP3
80 27 1 0.417000 -11.570000 -2.124000 9.062000 # HT TIP3
81 27 1 0.417000 -10.439000 -1.231000 8.661000 # HT TIP3
82 28 2 -0.834000 4.952000 -13.039000 11.164000 # OT TIP3
83 28 1 0.417000 5.414000 -13.921000 11.079000 # HT TIP3
84 28 1 0.417000 5.667000 -12.347000 11.013000 # HT TIP3
85 29 2 -0.834000 7.572000 -8.758000 -11.522000 # OT TIP3
86 29 1 0.417000 6.705000 -9.155000 -11.170000 # HT TIP3
87 29 1 0.417000 7.951000 -9.341000 -12.142000 # HT TIP3
88 30 2 -0.834000 -7.218000 13.346000 5.641000 # OT TIP3
89 30 1 0.417000 -6.345000 13.234000 6.114000 # HT TIP3
90 30 1 0.417000 -7.331000 14.295000 5.444000 # HT TIP3
91 31 2 -0.834000 -4.074000 -9.635000 -13.982000 # OT TIP3
92 31 1 0.417000 -3.862000 -10.231000 -13.246000 # HT TIP3
93 31 1 0.417000 -4.343000 -8.788000 -13.507000 # HT TIP3
94 32 2 -0.834000 -6.353000 -10.686000 4.278000 # OT TIP3
95 32 1 0.417000 -7.036000 -11.389000 4.326000 # HT TIP3
96 32 1 0.417000 -6.957000 -9.936000 4.153000 # HT TIP3
97 33 2 -0.834000 -6.619000 2.319000 8.275000 # OT TIP3
98 33 1 0.417000 -7.484000 2.340000 8.695000 # HT TIP3
99 33 1 0.417000 -6.569000 3.263000 8.009000 # HT TIP3
100 34 2 -0.834000 -10.658000 -3.612000 10.271000 # OT TIP3
101 34 1 0.417000 -10.158000 -4.303000 10.678000 # HT TIP3
102 34 1 0.417000 -10.097000 -2.852000 10.578000 # HT TIP3
103 35 2 -0.834000 -13.330000 0.675000 14.166000 # OT TIP3
104 35 1 0.417000 -12.880000 0.950000 14.974000 # HT TIP3
105 35 1 0.417000 -14.237000 0.517000 14.468000 # HT TIP3
106 36 2 -0.834000 1.470000 13.089000 -12.819000 # OT TIP3
107 36 1 0.417000 1.854000 12.230000 -12.501000 # HT TIP3
108 36 1 0.417000 0.533000 12.856000 -12.912000 # HT TIP3
109 37 2 -0.834000 -14.198000 10.084000 -9.477000 # OT TIP3
110 37 1 0.417000 -14.421000 11.065000 -9.495000 # HT TIP3
111 37 1 0.417000 -13.205000 10.163000 -9.555000 # HT TIP3
112 38 2 -0.834000 -10.701000 2.774000 -7.831000 # OT TIP3
113 38 1 0.417000 -11.697000 2.803000 -7.678000 # HT TIP3
114 38 1 0.417000 -10.467000 3.755000 -8.076000 # HT TIP3
115 39 2 -0.834000 -6.108000 -2.023000 -9.679000 # OT TIP3
116 39 1 0.417000 -6.881000 -2.522000 -9.557000 # HT TIP3
117 39 1 0.417000 -5.658000 -2.443000 -10.464000 # HT TIP3
118 40 2 -0.834000 -12.292000 5.969000 9.504000 # OT TIP3
119 40 1 0.417000 -12.411000 5.945000 8.556000 # HT TIP3
120 40 1 0.417000 -11.877000 6.835000 9.549000 # HT TIP3
121 41 2 -0.834000 -12.826000 3.468000 -12.788000 # OT TIP3
122 41 1 0.417000 -12.368000 2.628000 -12.797000 # HT TIP3
123 41 1 0.417000 -12.069000 4.120000 -12.719000 # HT TIP3
124 42 2 -0.834000 3.870000 6.460000 13.971000 # OT TIP3
125 42 1 0.417000 2.903000 6.288000 13.721000 # HT TIP3
126 42 1 0.417000 4.074000 5.691000 14.591000 # HT TIP3
127 43 2 -0.834000 -14.435000 14.252000 -13.417000 # OT TIP3
128 43 1 0.417000 -13.537000 14.562000 -13.264000 # HT TIP3
129 43 1 0.417000 -14.414000 13.335000 -13.212000 # HT TIP3
130 44 2 -0.834000 -1.388000 2.680000 3.622000 # OT TIP3
131 44 1 0.417000 -1.256000 2.414000 4.508000 # HT TIP3
132 44 1 0.417000 -0.474000 2.831000 3.347000 # HT TIP3
133 45 2 -0.834000 -13.713000 9.132000 8.737000 # OT TIP3
134 45 1 0.417000 -13.765000 8.924000 9.731000 # HT TIP3
135 45 1 0.417000 -12.912000 9.709000 8.639000 # HT TIP3
136 46 2 -0.834000 -8.635000 -12.326000 13.059000 # OT TIP3
137 46 1 0.417000 -9.201000 -11.563000 12.849000 # HT TIP3
138 46 1 0.417000 -7.825000 -11.945000 13.403000 # HT TIP3
139 47 2 -0.834000 0.414000 -8.431000 -12.499000 # OT TIP3
140 47 1 0.417000 1.224000 -8.142000 -12.872000 # HT TIP3
141 47 1 0.417000 -0.192000 -8.300000 -13.329000 # HT TIP3
142 48 2 -0.834000 -5.065000 -2.124000 -4.809000 # OT TIP3
143 48 1 0.417000 -5.291000 -2.902000 -5.366000 # HT TIP3
144 48 1 0.417000 -5.528000 -2.234000 -3.982000 # HT TIP3
145 49 2 -0.834000 -7.940000 -12.926000 4.830000 # OT TIP3
146 49 1 0.417000 -7.350000 -13.381000 5.528000 # HT TIP3
147 49 1 0.417000 -8.852000 -13.204000 5.035000 # HT TIP3
148 50 2 -0.834000 -1.109000 -13.081000 -12.008000 # OT TIP3
149 50 1 0.417000 -0.802000 -12.319000 -11.578000 # HT TIP3
150 50 1 0.417000 -1.788000 -13.423000 -11.422000 # HT TIP3
151 51 2 -0.834000 -6.177000 -4.419000 -6.173000 # OT TIP3
152 51 1 0.417000 -6.817000 -4.247000 -6.852000 # HT TIP3
153 51 1 0.417000 -6.611000 -4.939000 -5.466000 # HT TIP3
154 52 2 -0.834000 -5.922000 -3.033000 -2.266000 # OT TIP3
155 52 1 0.417000 -6.772000 -3.439000 -2.007000 # HT TIP3
156 52 1 0.417000 -5.488000 -2.806000 -1.440000 # HT TIP3
157 53 2 -0.834000 -4.718000 -14.360000 -12.947000 # OT TIP3
158 53 1 0.417000 -4.633000 -14.041000 -11.984000 # HT TIP3
159 53 1 0.417000 -5.257000 -13.677000 -13.333000 # HT TIP3
160 54 2 -0.834000 -10.382000 -6.875000 -7.223000 # OT TIP3
161 54 1 0.417000 -9.595000 -7.081000 -6.686000 # HT TIP3
162 54 1 0.417000 -10.998000 -6.542000 -6.578000 # HT TIP3
163 55 2 -0.834000 -11.597000 -10.313000 -5.185000 # OT TIP3
164 55 1 0.417000 -11.891000 -9.728000 -5.903000 # HT TIP3
165 55 1 0.417000 -11.183000 -11.027000 -5.673000 # HT TIP3
166 56 2 -0.834000 -11.724000 -7.535000 4.325000 # OT TIP3
167 56 1 0.417000 -12.228000 -8.009000 4.964000 # HT TIP3
168 56 1 0.417000 -11.396000 -6.712000 4.753000 # HT TIP3
169 57 2 -0.834000 -13.160000 -6.735000 13.662000 # OT TIP3
170 57 1 0.417000 -13.320000 -6.956000 12.747000 # HT TIP3
171 57 1 0.417000 -13.166000 -5.789000 13.733000 # HT TIP3
172 58 2 -0.834000 -5.022000 -7.125000 9.948000 # OT TIP3
173 58 1 0.417000 -5.411000 -7.374000 10.845000 # HT TIP3
174 58 1 0.417000 -4.564000 -6.344000 10.187000 # HT TIP3
175 59 2 -0.834000 -11.881000 -4.675000 -1.842000 # OT TIP3
176 59 1 0.417000 -11.402000 -4.100000 -2.488000 # HT TIP3
177 59 1 0.417000 -11.560000 -5.570000 -2.038000 # HT TIP3
178 60 2 -0.834000 -12.622000 -9.194000 1.253000 # OT TIP3
179 60 1 0.417000 -12.843000 -8.839000 2.099000 # HT TIP3
180 60 1 0.417000 -11.699000 -8.968000 1.126000 # HT TIP3
181 61 2 -0.834000 -8.618000 7.271000 -12.681000 # OT TIP3
182 61 1 0.417000 -9.450000 7.035000 -13.153000 # HT TIP3
183 61 1 0.417000 -8.141000 6.472000 -12.808000 # HT TIP3
184 62 2 -0.834000 -10.983000 -11.095000 4.418000 # OT TIP3
185 62 1 0.417000 -11.858000 -10.958000 4.132000 # HT TIP3
186 62 1 0.417000 -10.418000 -10.273000 4.295000 # HT TIP3
187 63 2 -0.834000 -12.656000 5.472000 6.631000 # OT TIP3
188 63 1 0.417000 -12.068000 5.821000 5.945000 # HT TIP3
189 63 1 0.417000 -13.533000 5.548000 6.138000 # HT TIP3
190 64 2 -0.834000 5.613000 -1.384000 -3.934000 # OT TIP3
191 64 1 0.417000 5.739000 -1.041000 -4.782000 # HT TIP3
192 64 1 0.417000 4.619000 -1.184000 -3.750000 # HT TIP3
193 65 2 -0.834000 -13.213000 -5.482000 9.515000 # OT TIP3
194 65 1 0.417000 -12.868000 -5.425000 8.646000 # HT TIP3
195 65 1 0.417000 -13.140000 -4.594000 9.787000 # HT TIP3
196 66 2 -0.834000 -0.474000 -4.468000 5.137000 # OT TIP3
197 66 1 0.417000 -0.838000 -5.267000 5.503000 # HT TIP3
198 66 1 0.417000 -0.534000 -4.580000 4.194000 # HT TIP3
199 67 2 -0.834000 11.124000 1.594000 1.807000 # OT TIP3
200 67 1 0.417000 11.948000 1.864000 2.244000 # HT TIP3
201 67 1 0.417000 11.137000 2.048000 0.900000 # HT TIP3
202 68 2 -0.834000 -6.124000 13.437000 -9.421000 # OT TIP3
203 68 1 0.417000 -5.773000 12.577000 -9.642000 # HT TIP3
204 68 1 0.417000 -6.210000 13.398000 -8.467000 # HT TIP3
205 69 2 -0.834000 -9.427000 -0.196000 4.090000 # OT TIP3
206 69 1 0.417000 -9.041000 0.339000 4.808000 # HT TIP3
207 69 1 0.417000 -9.131000 0.413000 3.331000 # HT TIP3
208 70 2 -0.834000 1.283000 -7.646000 7.781000 # OT TIP3
209 70 1 0.417000 0.640000 -6.942000 7.449000 # HT TIP3
210 70 1 0.417000 0.973000 -8.440000 7.379000 # HT TIP3
211 71 2 -0.834000 7.872000 3.441000 1.788000 # OT TIP3
212 71 1 0.417000 7.201000 2.864000 1.379000 # HT TIP3
213 71 1 0.417000 7.335000 3.981000 2.425000 # HT TIP3
214 72 2 -0.834000 -9.542000 -1.903000 -10.411000 # OT TIP3
215 72 1 0.417000 -9.327000 -1.981000 -11.388000 # HT TIP3
216 72 1 0.417000 -10.101000 -1.106000 -10.343000 # HT TIP3
217 73 2 -0.834000 12.849000 -5.132000 4.173000 # OT TIP3
218 73 1 0.417000 12.170000 -5.280000 4.863000 # HT TIP3
219 73 1 0.417000 12.403000 -4.581000 3.489000 # HT TIP3
220 74 2 -0.834000 -10.448000 -13.630000 5.330000 # OT TIP3
221 74 1 0.417000 -10.726000 -12.806000 4.953000 # HT TIP3
222 74 1 0.417000 -10.765000 -14.199000 4.571000 # HT TIP3
223 75 2 -0.834000 -10.406000 10.266000 0.200000 # OT TIP3
224 75 1 0.417000 -11.362000 10.500000 0.196000 # HT TIP3
225 75 1 0.417000 -10.242000 9.897000 -0.688000 # HT TIP3
226 76 2 -0.834000 -4.034000 -14.513000 12.664000 # OT TIP3
227 76 1 0.417000 -4.165000 -13.577000 12.475000 # HT TIP3
228 76 1 0.417000 -4.442000 -14.908000 11.883000 # HT TIP3
229 77 2 -0.834000 -9.840000 -1.256000 -7.046000 # OT TIP3
230 77 1 0.417000 -8.952000 -1.578000 -6.793000 # HT TIP3
231 77 1 0.417000 -9.992000 -0.507000 -6.472000 # HT TIP3
232 78 2 -0.834000 -4.610000 -8.614000 3.828000 # OT TIP3
233 78 1 0.417000 -4.312000 -8.516000 4.731000 # HT TIP3
234 78 1 0.417000 -5.156000 -9.411000 3.921000 # HT TIP3
235 79 2 -0.834000 -13.322000 6.942000 -13.965000 # OT TIP3
236 79 1 0.417000 -13.728000 6.280000 -13.408000 # HT TIP3
237 79 1 0.417000 -13.502000 7.809000 -13.507000 # HT TIP3
238 80 2 -0.834000 -5.370000 6.547000 -12.000000 # OT TIP3
239 80 1 0.417000 -5.399000 7.471000 -12.357000 # HT TIP3
240 80 1 0.417000 -5.713000 5.954000 -12.688000 # HT TIP3
241 81 2 -0.834000 -10.609000 14.423000 6.120000 # OT TIP3
242 81 1 0.417000 -11.237000 13.799000 6.511000 # HT TIP3
243 81 1 0.417000 -10.406000 14.044000 5.208000 # HT TIP3
244 82 2 -0.834000 -12.656000 -4.429000 -12.376000 # OT TIP3
245 82 1 0.417000 -12.878000 -4.247000 -11.447000 # HT TIP3
246 82 1 0.417000 -12.053000 -5.209000 -12.383000 # HT TIP3
247 83 2 -0.834000 -12.418000 12.635000 7.063000 # OT TIP3
248 83 1 0.417000 -13.174000 12.334000 7.610000 # HT TIP3
249 83 1 0.417000 -12.859000 12.873000 6.227000 # HT TIP3
250 84 2 -0.834000 -14.177000 8.668000 -12.112000 # OT TIP3
251 84 1 0.417000 -13.364000 8.316000 -11.660000 # HT TIP3
252 84 1 0.417000 -14.747000 8.978000 -11.360000 # HT TIP3
253 85 2 -0.834000 -12.917000 13.332000 -7.674000 # OT TIP3
254 85 1 0.417000 -13.442000 13.514000 -6.885000 # HT TIP3
255 85 1 0.417000 -13.504000 12.737000 -8.189000 # HT TIP3
256 86 2 -0.834000 -1.780000 9.494000 -1.908000 # OT TIP3
257 86 1 0.417000 -2.109000 10.383000 -1.713000 # HT TIP3
258 86 1 0.417000 -1.944000 8.918000 -1.147000 # HT TIP3
259 87 2 -0.834000 -14.005000 13.021000 -4.985000 # OT TIP3
260 87 1 0.417000 -14.987000 12.981000 -4.957000 # HT TIP3
261 87 1 0.417000 -13.702000 12.119000 -4.737000 # HT TIP3
262 88 2 -0.834000 -12.290000 -8.815000 -7.460000 # OT TIP3
263 88 1 0.417000 -12.533000 -8.764000 -8.439000 # HT TIP3
264 88 1 0.417000 -11.590000 -8.145000 -7.420000 # HT TIP3
265 89 2 -0.834000 -8.089000 4.458000 2.335000 # OT TIP3
266 89 1 0.417000 -7.483000 5.118000 1.957000 # HT TIP3
267 89 1 0.417000 -8.685000 4.136000 1.588000 # HT TIP3
268 90 2 -0.834000 -9.821000 5.890000 12.387000 # OT TIP3
269 90 1 0.417000 -10.382000 6.606000 12.646000 # HT TIP3
270 90 1 0.417000 -9.804000 5.211000 13.107000 # HT TIP3
271 91 2 -0.834000 1.192000 7.403000 -11.218000 # OT TIP3
272 91 1 0.417000 1.363000 7.881000 -10.378000 # HT TIP3
273 91 1 0.417000 1.427000 8.065000 -11.914000 # HT TIP3
274 92 2 -0.834000 -1.460000 7.220000 -12.252000 # OT TIP3
275 92 1 0.417000 -2.035000 7.475000 -11.538000 # HT TIP3
276 92 1 0.417000 -0.572000 7.404000 -11.926000 # HT TIP3
277 93 2 -0.834000 -6.819000 8.465000 -7.363000 # OT TIP3
278 93 1 0.417000 -5.993000 8.937000 -7.297000 # HT TIP3
279 93 1 0.417000 -7.483000 9.117000 -7.688000 # HT TIP3
280 94 2 -0.834000 -4.071000 -0.250000 -9.282000 # OT TIP3
281 94 1 0.417000 -4.950000 -0.459000 -9.592000 # HT TIP3
282 94 1 0.417000 -3.599000 -1.121000 -9.283000 # HT TIP3
283 95 2 -0.834000 4.659000 10.552000 2.449000 # OT TIP3
284 95 1 0.417000 5.182000 11.346000 2.499000 # HT TIP3
285 95 1 0.417000 3.734000 10.858000 2.381000 # HT TIP3
286 96 2 -0.834000 -12.914000 10.452000 3.194000 # OT TIP3
287 96 1 0.417000 -12.826000 10.923000 2.394000 # HT TIP3
288 96 1 0.417000 -13.728000 10.869000 3.604000 # HT TIP3
289 97 2 -0.834000 -13.317000 10.667000 11.332000 # OT TIP3
290 97 1 0.417000 -12.420000 10.907000 11.426000 # HT TIP3
291 97 1 0.417000 -13.515000 10.227000 12.126000 # HT TIP3
292 98 2 -0.834000 8.331000 6.619000 3.069000 # OT TIP3
293 98 1 0.417000 8.137000 7.516000 3.456000 # HT TIP3
294 98 1 0.417000 7.663000 5.985000 3.450000 # HT TIP3
295 99 2 -0.834000 1.507000 2.170000 6.006000 # OT TIP3
296 99 1 0.417000 2.226000 2.006000 5.295000 # HT TIP3
297 99 1 0.417000 1.030000 1.297000 6.082000 # HT TIP3
298 100 2 -0.834000 -11.210000 8.318000 11.067000 # OT TIP3
299 100 1 0.417000 -10.889000 8.684000 11.901000 # HT TIP3
300 100 1 0.417000 -12.165000 8.196000 11.248000 # HT TIP3
301 101 2 -0.834000 -14.253000 -10.531000 -4.421000 # OT TIP3
302 101 1 0.417000 -14.574000 -11.432000 -4.661000 # HT TIP3
303 101 1 0.417000 -13.495000 -10.415000 -5.010000 # HT TIP3
304 102 2 -0.834000 -9.644000 -9.612000 1.046000 # OT TIP3
305 102 1 0.417000 -9.116000 -8.936000 1.461000 # HT TIP3
306 102 1 0.417000 -9.408000 -10.378000 1.537000 # HT TIP3
307 103 2 -0.834000 -13.111000 -9.415000 14.541000 # OT TIP3
308 103 1 0.417000 -13.062000 -8.498000 14.263000 # HT TIP3
309 103 1 0.417000 -13.985000 -9.688000 14.145000 # HT TIP3
310 104 2 -0.834000 -4.296000 -8.279000 0.883000 # OT TIP3
311 104 1 0.417000 -4.099000 -8.088000 1.836000 # HT TIP3
312 104 1 0.417000 -4.873000 -9.028000 0.998000 # HT TIP3
313 105 2 -0.834000 11.897000 -2.906000 -14.321000 # OT TIP3
314 105 1 0.417000 11.514000 -3.720000 -14.696000 # HT TIP3
315 105 1 0.417000 12.875000 -3.073000 -14.447000 # HT TIP3
316 106 2 -0.834000 -12.811000 -13.294000 9.878000 # OT TIP3
317 106 1 0.417000 -13.536000 -13.909000 9.710000 # HT TIP3
318 106 1 0.417000 -12.875000 -13.195000 10.900000 # HT TIP3
319 107 2 -0.834000 -3.237000 4.614000 -5.042000 # OT TIP3
320 107 1 0.417000 -2.721000 5.405000 -5.134000 # HT TIP3
321 107 1 0.417000 -2.565000 3.905000 -5.099000 # HT TIP3
322 108 2 -0.834000 -7.136000 -4.397000 13.950000 # OT TIP3
323 108 1 0.417000 -7.531000 -3.725000 14.507000 # HT TIP3
324 108 1 0.417000 -7.846000 -5.008000 13.783000 # HT TIP3
325 109 2 -0.834000 -7.973000 -12.776000 -1.589000 # OT TIP3
326 109 1 0.417000 -8.815000 -12.199000 -1.465000 # HT TIP3
327 109 1 0.417000 -8.308000 -13.597000 -1.258000 # HT TIP3
328 110 2 -0.834000 2.812000 -9.229000 -9.124000 # OT TIP3
329 110 1 0.417000 2.220000 -8.684000 -9.620000 # HT TIP3
330 110 1 0.417000 2.551000 -10.131000 -9.331000 # HT TIP3
331 111 2 -0.834000 -10.972000 -7.301000 -2.224000 # OT TIP3
332 111 1 0.417000 -10.423000 -7.807000 -2.862000 # HT TIP3
333 111 1 0.417000 -11.829000 -7.680000 -2.456000 # HT TIP3
334 112 2 -0.834000 -3.951000 -5.120000 11.882000 # OT TIP3
335 112 1 0.417000 -3.605000 -5.519000 12.655000 # HT TIP3
336 112 1 0.417000 -3.095000 -4.905000 11.383000 # HT TIP3
337 113 2 -0.834000 7.133000 -12.114000 4.843000 # OT TIP3
338 113 1 0.417000 7.929000 -12.404000 5.262000 # HT TIP3
339 113 1 0.417000 6.486000 -12.172000 5.561000 # HT TIP3
340 114 2 -0.834000 -2.507000 -5.549000 -12.785000 # OT TIP3
341 114 1 0.417000 -2.092000 -5.160000 -12.013000 # HT TIP3
342 114 1 0.417000 -2.018000 -6.359000 -12.961000 # HT TIP3
343 115 2 -0.834000 -3.823000 -5.390000 -7.072000 # OT TIP3
344 115 1 0.417000 -4.557000 -4.828000 -6.947000 # HT TIP3
345 115 1 0.417000 -4.134000 -6.212000 -6.702000 # HT TIP3
346 116 2 -0.834000 -13.162000 -11.794000 0.398000 # OT TIP3
347 116 1 0.417000 -12.799000 -10.919000 0.545000 # HT TIP3
348 116 1 0.417000 -12.883000 -12.001000 -0.578000 # HT TIP3
349 117 2 -0.834000 1.133000 -2.407000 1.908000 # OT TIP3
350 117 1 0.417000 0.352000 -2.231000 1.391000 # HT TIP3
351 117 1 0.417000 0.887000 -3.124000 2.511000 # HT TIP3
352 118 2 -0.834000 -13.101000 -3.376000 2.893000 # OT TIP3
353 118 1 0.417000 -13.861000 -3.322000 2.305000 # HT TIP3
354 118 1 0.417000 -12.742000 -2.465000 2.855000 # HT TIP3
355 119 2 -0.834000 -5.780000 -1.096000 2.340000 # OT TIP3
356 119 1 0.417000 -4.938000 -0.802000 2.738000 # HT TIP3
357 119 1 0.417000 -5.606000 -2.001000 2.102000 # HT TIP3
358 120 2 -0.834000 -11.542000 -5.132000 7.419000 # OT TIP3
359 120 1 0.417000 -10.602000 -4.984000 7.654000 # HT TIP3
360 120 1 0.417000 -11.552000 -4.811000 6.495000 # HT TIP3
361 121 2 -0.834000 -12.076000 -10.857000 11.959000 # OT TIP3
362 121 1 0.417000 -11.442000 -10.454000 11.376000 # HT TIP3
363 121 1 0.417000 -12.335000 -10.170000 12.592000 # HT TIP3
364 122 2 -0.834000 3.441000 1.134000 -11.160000 # OT TIP3
365 122 1 0.417000 3.610000 1.488000 -12.032000 # HT TIP3
366 122 1 0.417000 4.113000 0.407000 -11.039000 # HT TIP3
367 123 2 -0.834000 0.430000 -11.726000 -7.593000 # OT TIP3
368 123 1 0.417000 0.458000 -12.259000 -6.843000 # HT TIP3
369 123 1 0.417000 0.933000 -12.260000 -8.230000 # HT TIP3
370 124 2 -0.834000 -1.866000 -10.465000 -8.441000 # OT TIP3
371 124 1 0.417000 -2.566000 -11.068000 -8.062000 # HT TIP3
372 124 1 0.417000 -1.041000 -10.838000 -8.035000 # HT TIP3
373 125 2 -0.834000 -9.292000 -10.574000 9.418000 # OT TIP3
374 125 1 0.417000 -8.998000 -10.297000 10.300000 # HT TIP3
375 125 1 0.417000 -9.843000 -9.832000 9.144000 # HT TIP3
376 126 2 -0.834000 1.321000 4.495000 0.870000 # OT TIP3
377 126 1 0.417000 1.960000 4.159000 0.192000 # HT TIP3
378 126 1 0.417000 1.854000 5.132000 1.388000 # HT TIP3
379 127 2 -0.834000 -4.705000 -0.934000 -0.680000 # OT TIP3
380 127 1 0.417000 -4.408000 -0.933000 0.226000 # HT TIP3
381 127 1 0.417000 -5.678000 -0.774000 -0.650000 # HT TIP3
382 128 2 -0.834000 1.008000 2.797000 -3.590000 # OT TIP3
383 128 1 0.417000 1.695000 2.702000 -4.316000 # HT TIP3
384 128 1 0.417000 0.186000 2.521000 -4.058000 # HT TIP3
385 129 2 -0.834000 0.398000 -13.448000 3.246000 # OT TIP3
386 129 1 0.417000 1.016000 -13.049000 2.566000 # HT TIP3
387 129 1 0.417000 -0.426000 -12.989000 3.109000 # HT TIP3
388 130 2 -0.834000 -7.170000 4.751000 -13.005000 # OT TIP3
389 130 1 0.417000 -7.743000 4.870000 -13.753000 # HT TIP3
390 130 1 0.417000 -6.671000 3.923000 -13.115000 # HT TIP3
391 131 2 -0.834000 -1.337000 11.432000 -8.471000 # OT TIP3
392 131 1 0.417000 -1.149000 11.261000 -7.518000 # HT TIP3
393 131 1 0.417000 -1.645000 12.375000 -8.468000 # HT TIP3
394 132 2 -0.834000 0.027000 -3.751000 -5.194000 # OT TIP3
395 132 1 0.417000 0.636000 -4.047000 -5.896000 # HT TIP3
396 132 1 0.417000 -0.071000 -2.806000 -5.455000 # HT TIP3
397 133 2 -0.834000 4.530000 4.813000 9.413000 # OT TIP3
398 133 1 0.417000 5.399000 5.251000 9.331000 # HT TIP3
399 133 1 0.417000 4.755000 3.876000 9.418000 # HT TIP3
400 134 2 -0.834000 -4.726000 -3.552000 5.959000 # OT TIP3
401 134 1 0.417000 -4.107000 -3.927000 6.654000 # HT TIP3
402 134 1 0.417000 -4.656000 -4.109000 5.238000 # HT TIP3
403 135 2 -0.834000 -3.527000 -8.925000 6.702000 # OT TIP3
404 135 1 0.417000 -2.954000 -9.333000 7.431000 # HT TIP3
405 135 1 0.417000 -4.446000 -9.061000 7.100000 # HT TIP3
406 136 2 -0.834000 -6.682000 0.284000 10.150000 # OT TIP3
407 136 1 0.417000 -6.010000 0.079000 10.736000 # HT TIP3
408 136 1 0.417000 -6.264000 0.953000 9.564000 # HT TIP3
409 137 2 -0.834000 -1.088000 11.462000 -12.714000 # OT TIP3
410 137 1 0.417000 -1.333000 12.388000 -12.461000 # HT TIP3
411 137 1 0.417000 -1.512000 10.916000 -12.000000 # HT TIP3
412 138 2 -0.834000 6.008000 -11.730000 0.173000 # OT TIP3
413 138 1 0.417000 5.390000 -10.964000 0.084000 # HT TIP3
414 138 1 0.417000 6.768000 -11.408000 -0.251000 # HT TIP3
415 139 2 -0.834000 -8.200000 1.659000 2.184000 # OT TIP3
416 139 1 0.417000 -7.857000 1.649000 1.327000 # HT TIP3
417 139 1 0.417000 -7.891000 2.502000 2.568000 # HT TIP3
418 140 2 -0.834000 -9.220000 2.516000 9.024000 # OT TIP3
419 140 1 0.417000 -9.894000 2.326000 8.341000 # HT TIP3
420 140 1 0.417000 -9.250000 3.485000 9.094000 # HT TIP3
421 141 2 -0.834000 9.714000 6.300000 13.954000 # OT TIP3
422 141 1 0.417000 9.446000 6.591000 13.048000 # HT TIP3
423 141 1 0.417000 10.209000 7.035000 14.317000 # HT TIP3
424 142 2 -0.834000 -0.397000 3.110000 -11.787000 # OT TIP3
425 142 1 0.417000 -0.725000 2.655000 -11.037000 # HT TIP3
426 142 1 0.417000 -1.158000 3.606000 -12.122000 # HT TIP3
427 143 2 -0.834000 -10.247000 5.139000 -9.525000 # OT TIP3
428 143 1 0.417000 -10.231000 6.053000 -9.154000 # HT TIP3
429 143 1 0.417000 -9.337000 5.031000 -9.799000 # HT TIP3
430 144 2 -0.834000 -5.750000 7.403000 13.404000 # OT TIP3
431 144 1 0.417000 -6.576000 7.852000 13.305000 # HT TIP3
432 144 1 0.417000 -5.857000 6.926000 14.253000 # HT TIP3
433 145 2 -0.834000 -13.385000 2.355000 -0.645000 # OT TIP3
434 145 1 0.417000 -13.775000 1.480000 -0.580000 # HT TIP3
435 145 1 0.417000 -14.141000 2.984000 -0.949000 # HT TIP3
436 146 2 -0.834000 -3.913000 0.787000 5.150000 # OT TIP3
437 146 1 0.417000 -3.779000 -0.123000 4.698000 # HT TIP3
438 146 1 0.417000 -3.064000 0.940000 5.591000 # HT TIP3
439 147 2 -0.834000 7.578000 8.665000 8.229000 # OT TIP3
440 147 1 0.417000 8.396000 8.499000 7.734000 # HT TIP3
441 147 1 0.417000 6.920000 8.775000 7.561000 # HT TIP3
442 148 2 -0.834000 -5.216000 3.060000 1.439000 # OT TIP3
443 148 1 0.417000 -4.424000 3.166000 0.922000 # HT TIP3
444 148 1 0.417000 -5.059000 3.584000 2.234000 # HT TIP3
445 149 2 -0.834000 -12.631000 4.620000 -4.162000 # OT TIP3
446 149 1 0.417000 -12.949000 4.425000 -3.299000 # HT TIP3
447 149 1 0.417000 -11.653000 4.717000 -4.077000 # HT TIP3
448 150 2 -0.834000 0.158000 0.218000 -13.547000 # OT TIP3
449 150 1 0.417000 0.286000 1.123000 -13.840000 # HT TIP3
450 150 1 0.417000 -0.825000 0.219000 -13.413000 # HT TIP3
451 151 2 -0.834000 -7.071000 -5.399000 -10.678000 # OT TIP3
452 151 1 0.417000 -7.636000 -4.660000 -11.088000 # HT TIP3
453 151 1 0.417000 -7.682000 -5.989000 -10.180000 # HT TIP3
454 152 2 -0.834000 -4.791000 11.935000 -13.027000 # OT TIP3
455 152 1 0.417000 -5.603000 12.288000 -13.480000 # HT TIP3
456 152 1 0.417000 -4.477000 12.672000 -12.376000 # HT TIP3
457 153 2 -0.834000 -7.875000 11.008000 1.205000 # OT TIP3
458 153 1 0.417000 -7.695000 11.912000 0.994000 # HT TIP3
459 153 1 0.417000 -8.715000 10.889000 0.734000 # HT TIP3
460 154 2 -0.834000 -3.415000 8.121000 4.455000 # OT TIP3
461 154 1 0.417000 -2.587000 8.205000 4.982000 # HT TIP3
462 154 1 0.417000 -4.184000 8.266000 5.095000 # HT TIP3
463 155 2 -0.834000 6.033000 12.960000 2.593000 # OT TIP3
464 155 1 0.417000 6.033000 13.956000 2.621000 # HT TIP3
465 155 1 0.417000 6.925000 12.777000 2.175000 # HT TIP3
466 156 2 -0.834000 -8.751000 12.735000 -1.332000 # OT TIP3
467 156 1 0.417000 -8.537000 13.358000 -2.002000 # HT TIP3
468 156 1 0.417000 -7.910000 12.243000 -1.152000 # HT TIP3
469 157 2 -0.834000 -1.245000 10.794000 -5.480000 # OT TIP3
470 157 1 0.417000 -2.174000 10.669000 -5.233000 # HT TIP3
471 157 1 0.417000 -0.852000 10.751000 -4.626000 # HT TIP3
472 158 2 -0.834000 -9.020000 12.548000 8.471000 # OT TIP3
473 158 1 0.417000 -8.723000 13.300000 8.032000 # HT TIP3
474 158 1 0.417000 -9.003000 12.744000 9.375000 # HT TIP3
475 159 2 -0.834000 -8.262000 8.712000 11.178000 # OT TIP3
476 159 1 0.417000 -7.917000 9.220000 10.441000 # HT TIP3
477 159 1 0.417000 -9.093000 8.381000 10.843000 # HT TIP3
478 160 2 -0.834000 -8.297000 11.593000 -10.152000 # OT TIP3
479 160 1 0.417000 -7.593000 12.207000 -10.239000 # HT TIP3
480 160 1 0.417000 -8.284000 11.068000 -10.987000 # HT TIP3
481 161 2 -0.834000 6.371000 2.885000 -9.125000 # OT TIP3
482 161 1 0.417000 5.731000 2.190000 -8.799000 # HT TIP3
483 161 1 0.417000 7.157000 2.771000 -8.621000 # HT TIP3
484 162 2 -0.834000 6.052000 -0.510000 -10.708000 # OT TIP3
485 162 1 0.417000 5.664000 -0.975000 -9.991000 # HT TIP3
486 162 1 0.417000 6.791000 0.006000 -10.253000 # HT TIP3
487 163 2 -0.834000 -3.935000 13.816000 9.528000 # OT TIP3
488 163 1 0.417000 -4.687000 13.525000 10.001000 # HT TIP3
489 163 1 0.417000 -3.280000 13.079000 9.603000 # HT TIP3
490 164 2 -0.834000 -6.893000 14.357000 10.179000 # OT TIP3
491 164 1 0.417000 -7.419000 14.729000 10.895000 # HT TIP3
492 164 1 0.417000 -6.572000 13.414000 10.546000 # HT TIP3
493 165 2 -0.834000 -6.212000 -11.706000 9.627000 # OT TIP3
494 165 1 0.417000 -7.126000 -11.430000 9.750000 # HT TIP3
495 165 1 0.417000 -5.829000 -11.091000 9.019000 # HT TIP3
496 166 2 -0.834000 -11.680000 -13.561000 -11.307000 # OT TIP3
497 166 1 0.417000 -11.982000 -13.737000 -12.205000 # HT TIP3
498 166 1 0.417000 -10.782000 -13.263000 -11.467000 # HT TIP3
499 167 2 -0.834000 1.096000 -6.595000 -4.372000 # OT TIP3
500 167 1 0.417000 1.085000 -5.610000 -4.285000 # HT TIP3
501 167 1 0.417000 1.077000 -6.652000 -5.379000 # HT TIP3
502 168 2 -0.834000 -6.622000 7.836000 -0.926000 # OT TIP3
503 168 1 0.417000 -5.873000 8.085000 -1.522000 # HT TIP3
504 168 1 0.417000 -7.194000 8.652000 -0.888000 # HT TIP3
505 169 2 -0.834000 -4.574000 4.542000 12.064000 # OT TIP3
506 169 1 0.417000 -5.532000 4.388000 12.335000 # HT TIP3
507 169 1 0.417000 -4.347000 3.803000 11.429000 # HT TIP3
508 170 2 -0.834000 3.479000 -11.911000 -13.622000 # OT TIP3