LAMMPS data file. CGCMM style. atom_style full generated by VMD/TopoTools v1.7 on Sun Jun 11 17:07:32 CEST 2017
 1165 atoms
 0 bonds
 0 angles
 0 dihedrals
 0 impropers
 3 atom types
 0 bond types
 0 angle types
 0 dihedral types
 0 improper types
 -10.023499 9.976501  xlo xhi
 -10.066000 9.934000  ylo yhi
 -9.911500 10.088500  zlo zhi

 Masses

 1 1.007940 # HT
 2 15.999400 # OT
 3 1e-6 # dummy 
 

Atoms

1 1 2 0.000 -6.332000 0.082000 5.904000
2 1 1 0.241 -6.891981 0.368837 6.625372
3 1 1 0.241 -6.752364 0.433871 5.119327
4 1 3 -0.241 -5.685275 0.340247 5.975105
5 1 3 -0.241 -6.302466 -0.616838 5.876561
6 2 2 0.000 -4.814000 6.696000 2.072000
7 2 1 0.241 -4.676175 5.843870 2.485654
8 2 1 0.241 -3.937431 6.983281 1.816405
9 2 3 -0.241 -5.227644 6.634472 1.510651
10 2 3 -0.241 -5.100102 7.147170 2.524317
11 3 2 0.000 -6.214000 6.318000 -8.690000
12 3 1 0.241 -5.468324 6.601316 -9.219085
13 3 1 0.241 -6.234897 5.366767 -8.794645
14 3 3 -0.241 -6.120573 6.490964 -8.018171
15 3 3 -0.241 -6.807392 6.605776 -8.924672
16 4 2 0.000 -3.795000 -3.009000 8.442000
17 4 1 0.241 -4.681592 -2.938876 8.795935
18 4 1 0.241 -3.232160 -2.661942 9.134094
19 4 3 -0.241 -3.635456 -3.676649 8.304923
20 4 3 -0.241 -3.731215 -2.629129 7.857509
21 5 2 0.000 6.126000 4.701000 -5.423000
22 5 1 0.241 6.761877 5.405372 -5.548508
23 5 1 0.241 6.071211 4.272163 -6.277007
24 5 3 -0.241 6.347879 4.251609 -4.934311
25 5 3 -0.241 5.503277 4.960323 -5.236004
26 6 2 0.000 -7.250000 -1.156000 -0.371000
27 6 1 0.241 -7.769831 -0.723026 -1.048156
28 6 1 0.241 -7.863144 -1.753799 0.056694
29 6 3 -0.241 -6.717707 -1.509957 -0.656269
30 6 3 -0.241 -7.000748 -0.688344 0.086352
31 7 2 0.000 0.674000 -1.091000 -5.014000
32 7 1 0.241 -0.215385 -0.745205 -4.938824
33 7 1 0.241 0.992916 -1.131073 -4.112380
34 7 3 -0.241 0.667917 -1.728614 -5.302809
35 7 3 -0.241 1.073602 -0.664277 -5.399001
36 8 2 0.000 -9.998000 -4.333000 4.591000
37 8 1 0.241 -9.398638 -4.218501 5.328487
38 8 1 0.241 -9.511216 -4.008275 3.833487
39 8 3 -0.241 -10.162414 -5.008386 4.508408
40 8 3 -0.241 -10.582827 -3.960598 4.687406
41 9 2 0.000 -0.118000 -0.844000 4.916000
42 9 1 0.241 0.004468 -1.701647 5.323031
43 9 1 0.241 -0.424264 -0.282071 5.627808
44 9 3 -0.241 0.486157 -0.605504 4.655015
45 9 3 -0.241 -0.595372 -0.878504 4.405191
46 10 2 0.000 -8.339000 -3.319000 -8.057000
47 10 1 0.241 -9.188062 -3.369200 -8.496097
48 10 1 0.241 -8.040684 -4.227144 -8.006862
49 10 3 -0.241 -7.890467 -2.931484 -8.429356
50 10 3 -0.241 -8.407620 -3.045435 -7.416334
51 11 2 0.000 0.426000 -2.396000 -7.596000
52 11 1 0.241 0.244575 -2.127044 -6.695456
53 11 1 0.241 0.762747 -1.606192 -8.019128
54 11 3 -0.241 0.904079 -2.907121 -7.609970
55 11 3 -0.241 -0.159223 -2.615231 -7.911360
56 12 2 0.000 0.926000 -4.635000 -8.982000
57 12 1 0.241 0.667784 -3.823208 -8.545479
58 12 1 0.241 1.138795 -5.234764 -8.266994
59 12 3 -0.241 0.398941 -4.886955 -9.367652
60 12 3 -0.241 1.484391 -4.529305 -9.390690
61 13 2 0.000 -1.353000 -5.686000 9.278000
62 13 1 0.241 -1.899976 -4.910478 9.153042
63 13 1 0.241 -1.974596 -6.411888 9.332194
64 13 3 -0.241 -0.918583 -5.772272 8.735930
65 13 3 -0.241 -0.981316 -5.633967 9.868884
66 14 2 0.000 -5.701000 7.774000 -2.831000
67 14 1 0.241 -5.476029 8.676295 -3.057901
68 14 1 0.241 -6.646633 7.792211 -2.683764
69 14 3 -0.241 -5.540706 7.339593 -3.355973
70 14 3 -0.241 -5.364169 7.573427 -2.251073
71 15 2 0.000 -1.108000 2.977000 -4.679000
72 15 1 0.241 -0.676965 2.573313 -5.432311
73 15 1 0.241 -1.904962 2.461780 -4.553973
74 15 3 -0.241 -0.699169 2.941805 -4.111886
75 15 3 -0.241 -1.264409 3.646072 -4.812714
76 16 2 0.000 -7.826000 8.468000 -7.788000
77 16 1 0.241 -7.115547 9.106086 -7.722167
78 16 1 0.241 -7.385281 7.618358 -7.798360
79 16 3 -0.241 -8.254833 8.517529 -7.236956
80 16 3 -0.241 -8.191265 8.564406 -8.377311
81 17 2 0.000 3.612000 7.680000 8.622000
82 17 1 0.241 4.505875 7.838423 8.318486
83 17 1 0.241 3.713233 7.404038 9.532949
84 17 3 -0.241 3.229757 8.265041 8.581777
85 17 3 -0.241 3.307801 7.176039 8.243204
86 18 2 0.000 5.414000 -3.431000 -7.499000
87 18 1 0.241 4.815292 -3.326770 -8.238538
88 18 1 0.241 6.263224 -3.145061 -7.835585
89 18 3 -0.241 5.213939 -3.031028 -6.960485
90 18 3 -0.241 5.441251 -4.100117 -7.295187
91 19 2 0.000 -0.065000 2.876000 0.191000
92 19 1 0.241 -0.536599 2.749598 1.014315
93 19 1 0.241 -0.295739 2.111996 -0.337478
94 19 3 -0.241 -0.271127 3.466120 -0.124070
95 19 3 -0.241 0.625612 2.900096 0.302686
96 20 2 0.000 3.891000 -8.081000 -7.008000
97 20 1 0.241 3.213360 -8.424593 -6.425780
98 20 1 0.241 4.210093 -7.293851 -6.566631
99 20 3 -0.241 4.407702 -8.546428 -7.087979
100 20 3 -0.241 3.621630 -7.921545 -7.634110
101 21 2 0.000 -1.177000 0.581000 -1.173000
102 21 1 0.241 -1.628149 0.073382 -0.498448
103 21 1 0.241 -1.844114 0.738648 -1.841085
104 21 3 -0.241 -0.941307 1.185900 -0.911189
105 21 3 -0.241 -0.641297 0.217515 -1.439272
106 22 2 0.000 -0.922000 1.967000 2.734000
107 22 1 0.241 -0.494304 2.190960 3.560529
108 22 1 0.241 -1.753352 1.570041 2.993825
109 22 3 -0.241 -1.031692 2.541052 2.348732
110 22 3 -0.241 -0.533859 1.512285 2.369883
111 23 2 0.000 0.282000 -9.360000 -7.947000
112 23 1 0.241 -0.259146 -8.683688 -8.354425
113 23 1 0.241 0.374224 -9.077689 -7.037040
114 23 3 -0.241 -0.033842 -9.983731 -7.981694
115 23 3 -0.241 0.907516 -9.397543 -8.258963
116 24 2 0.000 -5.382000 -1.875000 -2.223000
117 24 1 0.241 -6.010539 -1.538366 -1.584370
118 24 1 0.241 -4.602742 -2.081493 -1.706910
119 24 3 -0.241 -5.630911 -2.449592 -2.535869
120 24 3 -0.241 -5.237058 -1.390181 -2.706676
121 25 2 0.000 -6.597000 -5.313000 -0.185000
122 25 1 0.241 -6.178664 -6.036404 -0.651811
123 25 1 0.241 -6.895420 -4.721954 -0.876262
124 25 3 -0.241 -7.138378 -5.543455 0.194210
125 25 3 -0.241 -6.138342 -4.991241 0.234648
126 26 2 0.000 -6.724000 -2.535000 9.325000
127 26 1 0.241 -6.417169 -1.741623 9.763907
128 26 1 0.241 -7.231262 -2.997433 9.992138
129 26 3 -0.241 -7.126721 -2.373777 8.775616
130 26 3 -0.241 -6.183019 -2.924514 9.111416
131 27 2 0.000 -6.881000 0.325000 3.158000
132 27 1 0.241 -6.566418 -0.558651 2.967130
133 27 1 0.241 -6.418750 0.884361 2.533763
134 27 3 -0.241 -7.573178 0.367165 3.062541
135 27 3 -0.241 -6.724694 0.506536 3.815733
136 28 2 0.000 -7.622000 -4.194000 6.253000
137 28 1 0.241 -6.700432 -3.967282 6.128328
138 28 1 0.241 -7.843933 -3.833107 7.111332
139 28 3 -0.241 -8.017698 -3.904790 5.753220
140 28 3 -0.241 -7.708921 -4.888554 6.246690
141 29 2 0.000 -5.983000 -6.095000 9.418000
142 29 1 0.241 -5.493493 -5.284406 9.278173
143 29 1 0.241 -6.867239 -5.897698 9.109091
144 29 3 -0.241 -5.703278 -6.619742 9.048673
145 29 3 -0.241 -5.990429 -6.265522 10.096872
146 30 2 0.000 -4.427000 4.804000 9.090000
147 30 1 0.241 -4.179454 5.332156 8.331051
148 30 1 0.241 -4.072705 5.281202 9.840323
149 30 3 -0.241 -5.123316 4.750199 9.137433
150 30 3 -0.241 -4.145844 4.164289 9.048517
151 31 2 0.000 -4.542000 3.097000 -5.411000
152 31 1 0.241 -5.090189 3.878977 -5.345941
153 31 1 0.241 -4.337792 3.023960 -6.343307
154 31 3 -0.241 -3.956641 3.173250 -5.034782
155 31 3 -0.241 -4.890076 2.531713 -5.188977
156 32 2 0.000 -4.840000 3.744000 -2.046000
157 32 1 0.241 -4.993834 4.494337 -1.471925
158 32 1 0.241 -3.970897 3.427503 -1.799584
159 32 3 -0.241 -5.322924 3.248438 -1.940155
160 32 3 -0.241 -4.850481 3.940292 -2.717833
161 33 2 0.000 0.390000 -3.614000 8.828000
162 33 1 0.241 -0.156806 -4.397876 8.880664
163 33 1 0.241 0.708816 -3.483347 9.721038
164 33 3 -0.241 0.924155 -3.714180 8.386817
165 33 3 -0.241 0.013116 -3.063216 8.616822
166 34 2 0.000 -7.656000 0.571000 -7.376000
167 34 1 0.241 -7.071821 -0.187119 -7.361066
168 34 1 0.241 -7.862079 0.733344 -6.455453
169 34 3 -0.241 -7.335145 1.124995 -7.659094
170 34 3 -0.241 -8.237674 0.427981 -7.738217
171 35 2 0.000 -7.290000 -3.815000 -2.460000
172 35 1 0.241 -6.595560 -3.160386 -2.386069
173 35 1 0.241 -7.544470 -3.791784 -3.382463
174 35 3 -0.241 -7.051530 -4.449452 -2.285064
175 35 3 -0.241 -7.831968 -3.648126 -2.049605
176 36 2 0.000 0.929000 4.750000 -4.282000
177 36 1 0.241 1.387091 3.909533 -4.282142
178 36 1 0.241 0.047534 4.542934 -4.592440
179 36 3 -0.241 0.906916 5.019585 -3.636371
180 36 3 -0.241 1.243135 5.203020 -4.713384
181 37 2 0.000 -9.253000 -5.531000 0.579000
182 37 1 0.241 -8.500054 -5.400888 0.002480
183 37 1 0.241 -9.576830 -6.404095 0.357480
184 37 3 -0.241 -9.058080 -5.502519 1.250711
185 37 3 -0.241 -9.743931 -5.046959 0.457791
186 38 2 0.000 -4.644000 -4.612000 6.046000
187 38 1 0.241 -4.415704 -5.402486 6.535127
188 38 1 0.241 -4.120983 -3.919954 6.450669
189 38 3 -0.241 -4.478885 -4.683363 5.369506
190 38 3 -0.241 -5.327382 -4.472732 6.105939
191 39 2 0.000 0.704000 -3.279000 5.883000
192 39 1 0.241 0.119903 -4.034146 5.952402
193 39 1 0.241 0.920931 -3.059324 6.789044
194 39 3 -0.241 1.281344 -3.445030 5.523684
195 39 3 -0.241 0.379933 -2.743594 5.569438
196 40 2 0.000 -2.973000 -7.776000 3.411000
197 40 1 0.241 -3.269907 -8.625570 3.737051
198 40 1 0.241 -3.733067 -7.202446 3.508805
199 40 3 -0.241 -2.434394 -7.539821 3.790636
200 40 3 -0.241 -2.782488 -7.821778 2.738981
201 41 2 0.000 7.812000 -4.229000 -4.124000
202 41 1 0.241 7.549621 -5.125685 -4.332197
203 41 1 0.241 7.210930 -3.680019 -4.627554
204 41 3 -0.241 7.745205 -4.104575 -3.438393
205 41 3 -0.241 8.474417 -4.113573 -4.318629
206 42 2 0.000 -5.972000 -2.301000 2.776000
207 42 1 0.241 -6.844626 -2.644521 2.584301
208 42 1 0.241 -5.392724 -2.767588 2.173533
209 42 3 -0.241 -5.946546 -1.611262 2.659324
210 42 3 -0.241 -5.795097 -2.431911 3.440505
211 43 2 0.000 2.493000 -0.549000 -7.785000
212 43 1 0.241 2.984626 -1.352930 -7.953026
213 43 1 0.241 2.913034 -0.167516 -7.014108
214 43 3 -0.241 2.536606 -0.113603 -8.331377
215 43 3 -0.241 1.820516 -0.692986 -7.654490
216 44 2 0.000 1.177000 -0.390000 -2.072000
217 44 1 0.241 0.882105 -1.223421 -1.705015
218 44 1 0.241 0.433909 0.201339 -1.952144
219 44 3 -0.241 1.739216 -0.153555 -1.728478
220 44 3 -0.241 1.330804 -0.459453 -2.751353
221 45 2 0.000 -8.162000 -6.794000 5.398000
222 45 1 0.241 -7.909983 -6.996588 4.497068
223 45 1 0.241 -7.804214 -5.920469 5.556632
224 45 3 -0.241 -8.858739 -6.791944 5.465462
225 45 3 -0.241 -7.885913 -7.258884 5.842588
226 46 2 0.000 6.133000 2.593000 6.908000
227 46 1 0.241 5.882804 1.884373 7.500858
228 46 1 0.241 5.344810 2.764235 6.392571
229 46 3 -0.241 6.321207 3.162558 7.268808
230 46 3 -0.241 6.661089 2.394144 6.493780
231 47 2 0.000 -8.101000 1.624000 7.893000
232 47 1 0.241 -7.737033 2.508935 7.867512
233 47 1 0.241 -8.860449 1.660021 7.311475
234 47 3 -0.241 -7.633581 1.157495 7.660852
235 47 3 -0.241 -8.295609 1.455214 8.543876
236 48 2 0.000 -0.780000 3.904000 7.340000
237 48 1 0.241 -0.614279 2.993088 7.097085
238 48 1 0.241 0.041300 4.201156 7.731659
239 48 3 -0.241 -0.937053 4.286071 6.774884
240 48 3 -0.241 -1.303811 3.945308 7.802510
241 49 2 0.000 8.441000 6.134000 -6.160000
242 49 1 0.241 9.087859 5.437280 -6.048706
243 49 1 0.241 8.614130 6.484907 -7.033569
244 49 3 -0.241 7.791154 5.876735 -6.121078
245 49 3 -0.241 8.525204 6.629813 -5.673092
246 50 2 0.000 5.430000 -6.726000 -2.593000
247 50 1 0.241 5.922001 -7.234473 -3.237687
248 50 1 0.241 5.445836 -7.263187 -1.800907
249 50 3 -0.241 5.737531 -6.107643 -2.478723
250 50 3 -0.241 4.772154 -6.623043 -2.808960
251 51 2 0.000 3.134000 -5.465000 -3.441000
252 51 1 0.241 3.943027 -5.807606 -3.061093
253 51 1 0.241 2.445873 -6.030288 -3.090054
254 51 3 -0.241 3.031394 -4.800449 -3.246465
255 51 3 -0.241 3.153208 -5.503271 -4.139689
256 52 2 0.000 0.295000 4.066000 4.320000
257 52 1 0.241 -0.648456 4.221883 4.362701
258 52 1 0.241 0.580383 4.069308 5.233662
259 52 3 -0.241 0.430291 3.447787 4.020820
260 52 3 -0.241 0.613659 4.574401 3.959465
261 53 2 0.000 6.008000 7.797000 1.410000
262 53 1 0.241 5.196817 7.532740 0.975972
263 53 1 0.241 6.680162 7.713937 0.733590
264 53 3 -0.241 5.963999 8.458350 1.635123
265 53 3 -0.241 6.147900 7.375239 1.950875
266 54 2 0.000 5.398000 -8.448000 8.246000
267 54 1 0.241 4.569075 -7.988810 8.110871
268 54 1 0.241 5.990964 -8.068743 7.597317
269 54 3 -0.241 5.638302 -8.339066 8.894374
270 54 3 -0.241 5.320468 -9.135308 8.138313
271 55 2 0.000 -2.170000 9.751000 -8.005000
272 55 1 0.241 -1.697063 8.930899 -8.146410
273 55 1 0.241 -2.734310 9.838147 -8.773239
274 55 3 -0.241 -2.552406 9.718260 -7.419600
275 55 3 -0.241 -1.724563 10.289344 -7.962909
276 56 2 0.000 5.027000 1.249000 -0.194000
277 56 1 0.241 4.905294 2.172601 -0.413954
278 56 1 0.241 5.623974 0.919021 -0.865541
279 56 3 -0.241 5.309513 1.181532 0.442894
280 56 3 -0.241 4.416640 0.906978 -0.215926
281 57 2 0.000 -3.200000 6.659000 7.184000
282 57 1 0.241 -2.895695 7.485981 7.557810
283 57 1 0.241 -2.843058 6.651327 6.295875
284 57 3 -0.241 -2.956646 6.116285 7.553106
285 57 3 -0.241 -3.899493 6.636543 7.169677
286 58 2 0.000 4.603000 8.110000 -6.787000
287 58 1 0.241 3.850630 8.600380 -7.118208
288 58 1 0.241 4.267771 7.644960 -6.020455
289 58 3 -0.241 4.835151 7.658084 -7.268537
290 58 3 -0.241 5.121093 8.544435 -6.605766
291 59 2 0.000 -8.385000 7.355000 4.355000
292 59 1 0.241 -9.096704 7.929191 4.072133
293 59 1 0.241 -8.785930 6.487943 4.415818
294 59 3 -0.241 -7.865704 7.355042 3.885605
295 59 3 -0.241 -8.136783 7.556983 4.977568
296 60 2 0.000 -0.216000 8.060000 6.439000
297 60 1 0.241 -0.059854 8.579876 7.227403
298 60 1 0.241 0.580730 8.166882 5.919357
299 60 3 -0.241 -0.316277 7.386778 6.602451
300 60 3 -0.241 -0.773034 8.300874 6.090154
301 61 2 0.000 -7.631000 9.620000 0.838000
302 61 1 0.241 -6.682958 9.711702 0.933073
303 61 1 0.241 -7.942717 9.422034 1.721105
304 61 3 -0.241 -7.914785 10.215235 0.603136
305 61 3 -0.241 -7.786162 9.098068 0.398101
306 62 2 0.000 5.158000 5.218000 -8.547000
307 62 1 0.241 4.211792 5.182254 -8.406840
308 62 1 0.241 5.323223 6.113436 -8.842174
309 62 3 -0.241 5.501441 5.086536 -7.951378
310 62 3 -0.241 5.353295 4.756436 -9.035691
311 63 2 0.000 -2.071000 -0.399000 -5.678000
312 63 1 0.241 -2.681759 -0.959833 -5.199804
313 63 1 0.241 -2.620816 0.287833 -6.055088
314 63 3 -0.241 -1.595344 -0.124631 -5.243865
315 63 3 -0.241 -1.746073 -0.760285 -6.181880
316 64 2 0.000 -6.680000 -8.561000 -6.307000
317 64 1 0.241 -5.780919 -8.260433 -6.439460
318 64 1 0.241 -7.004423 -8.743474 -7.188864
319 64 3 -0.241 -6.691831 -9.140329 -5.914269
320 64 3 -0.241 -7.064578 -8.063133 -6.000033
321 65 2 0.000 6.096000 -1.595000 0.628000
322 65 1 0.241 6.078728 -1.701072 -0.323148
323 65 1 0.241 6.086445 -0.647563 0.764029
324 65 3 -0.241 5.533867 -1.892564 0.920339
325 65 3 -0.241 6.676639 -1.877824 0.897943
326 66 2 0.000 8.479000 -6.911000 -8.622000
327 66 1 0.241 8.585827 -7.845867 -8.797625
328 66 1 0.241 7.546823 -6.807747 -8.430644
329 66 3 -0.241 8.867259 -6.716491 -8.072982
330 66 3 -0.241 8.660081 -6.531848 -9.181869
331 67 2 0.000 5.529000 -4.018000 -1.481000
332 67 1 0.241 5.223082 -4.656318 -2.125357
333 67 1 0.241 6.376881 -4.355748 -1.192458
334 67 3 -0.241 5.600991 -3.386178 -1.773605
335 67 3 -0.241 5.083154 -3.976516 -0.942948
336 68 2 0.000 -5.461000 -7.395000 -1.705000
337 68 1 0.241 -5.577751 -8.342610 -1.636915
338 68 1 0.241 -4.527000 -7.280249 -1.880238
339 68 3 -0.241 -5.844845 -7.135533 -2.229728
340 68 3 -0.241 -5.640906 -7.079946 -1.106356
341 69 2 0.000 8.350000 -3.022000 7.615000
342 69 1 0.241 7.428383 -2.860649 7.817041
343 69 1 0.241 8.453711 -2.722389 6.711834
344 69 3 -0.241 8.765012 -2.658128 8.045537
345 69 3 -0.241 8.499192 -3.703851 7.668111
346 70 2 0.000 9.399000 2.364000 -8.020000
347 70 1 0.241 9.084312 2.099650 -7.155522
348 70 1 0.241 9.712696 1.552743 -8.419611
349 70 3 -0.241 8.879360 2.641274 -8.398277
350 70 3 -0.241 9.919325 2.828698 -7.962396
351 71 2 0.000 2.793000 3.364000 2.168000
352 71 1 0.241 1.984237 3.790385 2.451425
353 71 1 0.241 2.829866 3.522211 1.224686
354 71 3 -0.241 3.347307 3.647244 2.488182
355 71 3 -0.241 2.771160 2.677493 2.303021
356 72 2 0.000 -3.333000 -2.453000 -0.354000
357 72 1 0.241 -2.455024 -2.649537 -0.027254
358 72 1 0.241 -3.917934 -2.957710 0.211113
359 72 3 -0.241 -3.468770 -1.768265 -0.301992
360 72 3 -0.241 -3.399375 -2.654003 -1.021227
361 73 2 0.000 0.129000 7.485000 -3.450000
362 73 1 0.241 0.137419 6.714743 -4.018213
363 73 1 0.241 -0.749262 7.492897 -3.069440
364 73 3 -0.241 0.615011 7.428438 -2.949406
365 73 3 -0.241 0.243021 8.067450 -3.821148
366 74 2 0.000 -5.346000 -4.283000 -4.977000
367 74 1 0.241 -4.636974 -4.179208 -4.342381
368 74 1 0.241 -4.990201 -4.875046 -5.639661
369 74 3 -0.241 -5.911056 -4.562853 -4.673036
370 74 3 -0.241 -5.515478 -3.666340 -5.261619
371 75 2 0.000 2.336000 4.905000 -0.650000
372 75 1 0.241 1.638465 4.390069 -0.244386
373 75 1 0.241 1.877449 5.597755 -1.125450
374 75 3 -0.241 2.758049 5.177222 -0.162383
375 75 3 -0.241 2.711438 4.510112 -1.089443
376 76 2 0.000 -4.512000 4.255000 3.212000
377 76 1 0.241 -5.179141 3.998764 3.848787
378 76 1 0.241 -3.681941 4.140002 3.674611
379 76 3 -0.241 -4.538996 3.843569 2.646318
380 76 3 -0.241 -4.597387 4.922514 3.019299
381 77 2 0.000 -6.314000 -1.647000 -6.599000
382 77 1 0.241 -6.995950 -2.286607 -6.804132
383 77 1 0.241 -5.503870 -2.052505 -6.908009
384 77 3 -0.241 -6.431968 -1.043658 -6.933756
385 77 3 -0.241 -6.284453 -1.529406 -5.909581
386 78 2 0.000 5.005000 4.526000 9.133000
387 78 1 0.241 4.758236 4.449898 8.211291
388 78 1 0.241 5.749634 3.932722 9.231856
389 78 3 -0.241 5.190494 5.183417 9.285956
390 78 3 -0.241 4.476067 4.330333 9.547662
391 79 2 0.000 5.427000 3.899000 3.418000
392 79 1 0.241 4.576464 4.039386 3.001932
393 79 1 0.241 5.589095 4.703745 3.910284
394 79 3 -0.241 5.404159 3.346670 3.847430
395 79 3 -0.241 5.924738 3.799363 2.935995
396 80 2 0.000 5.117000 6.342000 5.320000
397 80 1 0.241 5.666122 7.043588 4.970041
398 80 1 0.241 4.222136 6.669091 5.228017
399 80 3 -0.241 5.204073 5.752855 4.952132
400 80 3 -0.241 5.268426 6.221545 5.992726
401 81 2 0.000 0.030000 1.441000 -6.566000
402 81 1 0.241 0.515846 1.321388 -7.382013
403 81 1 0.241 -0.696488 0.820649 -6.626102
404 81 3 -0.241 0.434561 1.295400 -6.013613
405 81 3 -0.241 -0.208562 2.097039 -6.514028
406 82 2 0.000 0.550000 -0.456000 1.315000
407 82 1 0.241 1.461532 -0.164621 1.335963
408 82 1 0.241 0.038754 0.349097 1.396716
409 82 3 -0.241 0.407470 -0.779280 0.710703
410 82 3 -0.241 0.416406 -0.889087 1.848468
411 83 2 0.000 7.196000 8.038000 3.777000
412 83 1 0.241 6.859329 8.143273 2.887167
413 83 1 0.241 7.498886 7.130707 3.813219
414 83 3 -0.241 7.725428 8.480437 3.895134
415 83 3 -0.241 6.689877 8.148809 4.247703
416 84 2 0.000 3.068000 -7.086000 0.149000
417 84 1 0.241 4.023518 -7.140445 0.133089
418 84 1 0.241 2.790137 -7.505322 -0.665366
419 84 3 -0.241 2.810000 -7.426861 0.703301
420 84 3 -0.241 2.858543 -6.418327 0.167438
421 85 2 0.000 -4.550000 -0.933000 -4.663000
422 85 1 0.241 -4.973087 -1.198190 -3.846358
423 85 1 0.241 -5.198393 -1.121530 -5.341435
424 85 3 -0.241 -4.395580 -0.250346 -4.651268
425 85 3 -0.241 -3.965295 -1.302671 -4.770069
426 86 2 0.000 -6.703000 8.771000 7.303000
427 86 1 0.241 -6.402577 8.921069 6.406642
428 86 1 0.241 -6.093132 9.269248 7.847097
429 86 3 -0.241 -7.357367 9.004976 7.387019
430 86 3 -0.241 -6.676567 8.089804 7.461977
431 87 2 0.000 -8.557000 -6.020000 8.627000
432 87 1 0.241 -9.390544 -5.712359 8.270920
433 87 1 0.241 -8.456442 -6.903721 8.273223
434 87 3 -0.241 -8.031285 -5.608212 8.417107
435 87 3 -0.241 -8.577089 -6.034399 9.326564
436 88 2 0.000 -1.057000 9.607000 -0.607000
437 88 1 0.241 -1.448379 9.213581 -1.386920
438 88 1 0.241 -0.124144 9.669598 -0.812164
439 88 3 -0.241 -1.327231 10.241665 -0.487939
440 88 3 -0.241 -1.160289 9.200541 -0.046534
441 89 2 0.000 3.340000 3.560000 6.477000
442 89 1 0.241 2.868886 4.372613 6.661235
443 89 1 0.241 3.417836 3.538681 5.523208
444 89 3 -0.241 3.972549 3.567384 6.776712
445 89 3 -0.241 2.978741 3.006768 6.708141
446 90 2 0.000 4.403000 -2.185000 5.212000
447 90 1 0.241 4.885278 -2.321037 4.396443
448 90 1 0.241 3.566310 -1.810513 4.936426
449 90 3 -0.241 4.304280 -2.792587 5.545305
450 90 3 -0.241 4.746199 -1.741899 5.631375
451 91 2 0.000 -3.143000 1.138000 -3.171000
452 91 1 0.241 -3.484362 0.375372 -3.638015
453 91 1 0.241 -3.863765 1.767790 -3.180717
454 91 3 -0.241 -2.970965 0.969051 -2.513839
455 91 3 -0.241 -2.582363 1.398582 -3.499303
456 92 2 0.000 2.113000 -9.079000 -5.058000
457 92 1 0.241 1.860142 -8.197390 -4.784032
458 92 1 0.241 2.799012 -9.334461 -4.441267
459 92 3 -0.241 1.568143 -9.516560 -5.017117
460 92 3 -0.241 2.359061 -9.073368 -5.713303
461 93 2 0.000 -0.803000 -5.625000 5.964000
462 93 1 0.241 -1.478803 -5.809606 6.616259
463 93 1 0.241 -0.816664 -6.385200 5.382501
464 93 3 -0.241 -0.953884 -5.040158 5.610172
465 93 3 -0.241 -0.176510 -5.558099 6.269016
466 94 2 0.000 -7.579000 -6.225000 -4.942000
467 94 1 0.241 -6.791585 -5.680959 -4.957146
468 94 1 0.241 -7.308217 -7.050352 -5.344123
469 94 3 -0.241 -7.794954 -6.329365 -4.284374
470 94 3 -0.241 -8.093008 -5.926582 -5.311787
471 95 2 0.000 1.518000 -7.859000 4.835000
472 95 1 0.241 2.343365 -8.280114 4.594860
473 95 1 0.241 1.347968 -7.241242 4.123877
474 95 3 -0.241 1.003409 -8.331345 4.880684
475 95 3 -0.241 1.580531 -7.522304 5.445513
476 96 2 0.000 -6.826000 -8.416000 6.976000
477 96 1 0.241 -6.745698 -9.030859 6.246801
478 96 1 0.241 -7.632192 -7.932820 6.794827
479 96 3 -0.241 -6.874453 -8.758771 7.584408
480 96 3 -0.241 -6.276817 -7.982394 6.995582
481 97 2 0.000 0.848000 0.071000 8.631000
482 97 1 0.241 1.674480 0.553739 8.642221
483 97 1 0.241 0.347841 0.468019 7.917944
484 97 3 -0.241 0.960128 -0.608569 8.506047
485 97 3 -0.241 0.510770 0.143698 9.240090
486 98 2 0.000 -4.859000 -8.389000 -9.501000
487 98 1 0.241 -3.950529 -8.683623 -9.436896
488 98 1 0.241 -5.313302 -8.857834 -8.800974
489 98 3 -0.241 -4.902114 -7.697116 -9.403851
490 98 3 -0.241 -5.129179 -8.554238 -10.125259
491 99 2 0.000 7.931000 4.372000 1.594000
492 99 1 0.241 7.941168 4.931122 2.370860
493 99 1 0.241 7.027700 4.413731 1.280090
494 99 3 -0.241 8.373037 4.614889 1.108605
495 99 3 -0.241 8.105061 3.714633 1.760045
496 100 2 0.000 -7.491000 -6.495000 2.910000
497 100 1 0.241 -7.295859 -7.265264 2.376292
498 100 1 0.241 -7.885233 -5.872969 2.298535
499 100 3 -0.241 -7.939750 -6.656343 3.422437
500 100 3 -0.241 -6.904913 -6.231404 3.187522
501 101 2 0.000 4.354000 -8.648000 4.004000
502 101 1 0.241 4.585665 -7.831675 4.446919
503 101 1 0.241 4.697876 -9.336082 4.573671
504 101 3 -0.241 3.659448 -8.705337 3.938353
505 101 3 -0.241 4.651535 -8.679127 3.371146
506 102 2 0.000 -4.539000 -3.246000 -8.057000
507 102 1 0.241 -4.814941 -4.016412 -8.553543
508 102 1 0.241 -3.591318 -3.345636 -7.966429
509 102 3 -0.241 -4.693846 -2.658796 -8.405158
510 102 3 -0.241 -4.847532 -3.233031 -7.428796
511 103 2 0.000 8.063000 4.437000 6.912000
512 103 1 0.241 7.232595 3.965222 6.975916
513 103 1 0.241 8.692345 3.877888 7.367577
514 103 3 -0.241 8.247817 4.522865 6.242321
515 103 3 -0.241 8.016878 5.062260 7.223324
516 104 2 0.000 -3.858000 1.858000 6.052000
517 104 1 0.241 -4.399119 1.157505 5.687680
518 104 1 0.241 -4.225253 2.661382 5.683308
519 104 3 -0.241 -3.899719 1.864854 6.750722
520 104 3 -0.241 -3.189671 1.780172 5.858922
521 105 2 0.000 1.187000 9.104000 8.681000
522 105 1 0.241 0.573436 8.789932 9.345178
523 105 1 0.241 1.988347 8.605039 8.839472
524 105 3 -0.241 0.940757 8.978804 8.037812
525 105 3 -0.241 1.303707 9.790037 8.756710
526 106 2 0.000 1.780000 3.509000 -9.017000
527 106 1 0.241 2.389267 3.815420 -9.688664
528 106 1 0.241 2.314488 3.428118 -8.227055
529 106 3 -0.241 1.264541 3.972671 -8.920507
530 106 3 -0.241 1.506478 2.889749 -9.195085
531 107 2 0.000 3.410000 3.796000 -6.794000
532 107 1 0.241 4.319225 3.639347 -6.539045
533 107 1 0.241 2.892364 3.377428 -6.106190
534 107 3 -0.241 3.275602 4.482419 -6.821680
535 107 3 -0.241 3.274274 3.506381 -7.416655
536 108 2 0.000 -2.686000 -9.772000 -0.848000
537 108 1 0.241 -1.789213 -9.662905 -0.531610
538 108 1 0.241 -2.601711 -9.807181 -1.800832
539 108 3 -0.241 -2.964571 -10.365292 -0.602230
540 108 3 -0.241 -3.084191 -9.229695 -0.654741
541 109 2 0.000 -9.711000 0.538000 3.468000
542 109 1 0.241 -8.787760 0.367986 3.654964
543 109 1 0.241 -9.710027 0.938250 2.598500
544 109 3 -0.241 -10.076805 -0.058807 3.465190
545 109 3 -0.241 -9.982732 0.975987 3.941634
546 110 2 0.000 6.214000 -2.153000 -5.234000
547 110 1 0.241 5.983451 -2.620238 -6.036974
548 110 1 0.241 5.374719 -1.980684 -4.807214
549 110 3 -0.241 6.622329 -2.548943 -4.825961
550 110 3 -0.241 6.543657 -1.553615 -5.382538
551 111 2 0.000 2.440000 2.407000 -4.630000
552 111 1 0.241 2.902979 1.848140 -4.005854
553 111 1 0.241 1.672112 1.896050 -4.885949
554 111 3 -0.241 2.247497 3.008462 -4.328030
555 111 3 -0.241 2.842835 2.543510 -5.185958
556 112 2 0.000 -3.032000 1.629000 -7.647000
557 112 1 0.241 -2.897932 2.295318 -8.321001
558 112 1 0.241 -3.413850 0.886916 -8.115757
559 112 3 -0.241 -2.422975 1.448794 -7.352696
560 112 3 -0.241 -3.470100 1.861471 -7.153011
561 113 2 0.000 3.533000 0.550000 -2.840000
562 113 1 0.241 3.983235 0.928259 -2.084725
563 113 1 0.241 2.661328 0.327441 -2.513065
564 113 3 -0.241 3.490354 1.015377 -3.361158
565 113 3 -0.241 3.866361 -0.022782 -3.065369
566 114 2 0.000 1.706000 5.811000 6.829000
567 114 1 0.241 2.332548 6.456395 7.156314
568 114 1 0.241 0.930266 6.323542 6.601471
569 114 3 -0.241 1.960182 5.483370 6.265041
570 114 3 -0.241 1.554728 5.339866 7.324126
571 115 2 0.000 1.642000 9.030000 -5.134000
572 115 1 0.241 1.525573 9.141466 -6.077532
573 115 1 0.241 0.772489 8.793401 -4.811194
574 115 3 -0.241 2.102722 8.520286 -5.000111
575 115 3 -0.241 1.861394 9.626033 -4.839702
576 116 2 0.000 2.814000 7.906000 -2.617000
577 116 1 0.241 1.959459 7.998648 -3.038198
578 116 1 0.241 3.349824 7.442511 -3.260663
579 116 3 -0.241 3.088151 8.533767 -2.472951
580 116 3 -0.241 2.759705 7.534045 -2.026490
581 117 2 0.000 0.963000 -8.263000 1.790000
582 117 1 0.241 1.728675 -7.934821 1.318543
583 117 1 0.241 0.222482 -7.802770 1.394963
584 117 3 -0.241 0.898045 -8.954801 1.705192
585 117 3 -0.241 1.010600 -8.115056 2.472530
586 118 2 0.000 -4.474000 -1.631000 4.858000
587 118 1 0.241 -5.029191 -1.072256 5.401874
588 118 1 0.241 -4.999338 -1.803598 4.076679
589 118 3 -0.241 -3.880496 -1.300554 4.689006
590 118 3 -0.241 -4.322137 -2.227816 5.190789
591 119 2 0.000 4.776000 -5.061000 2.443000
592 119 1 0.241 3.877239 -5.342633 2.613713
593 119 1 0.241 4.703214 -4.124416 2.259302
594 119 3 -0.241 5.180785 -5.172504 3.003103
595 119 3 -0.241 5.041404 -5.401292 1.891854
596 120 2 0.000 -2.471000 -5.492000 -8.604000
597 120 1 0.241 -3.198864 -5.488500 -9.225638
598 120 1 0.241 -1.688504 -5.417608 -9.150258
599 120 3 -0.241 -2.518410 -4.949215 -8.164527
600 120 3 -0.241 -2.461276 -6.088516 -8.237839
601 121 2 0.000 9.008000 -7.803000 9.861000
602 121 1 0.241 9.508303 -8.301954 9.215266
603 121 1 0.241 8.917059 -6.932434 9.473604
604 121 3 -0.241 8.380013 -8.093903 9.965916
605 121 3 -0.241 9.353602 -7.768441 10.468754
606 122 2 0.000 1.200000 -5.849000 -6.529000
607 122 1 0.241 0.546919 -5.582859 -5.881786
608 122 1 0.241 2.041048 -5.658048 -6.113780
609 122 3 -0.241 1.143597 -6.532153 -6.670848
610 122 3 -0.241 1.126740 -5.481157 -7.120037
611 123 2 0.000 -5.116000 -5.919000 3.713000
612 123 1 0.241 -6.060287 -6.022635 3.595465
613 123 1 0.241 -5.030589 -5.242302 4.384577
614 123 3 -0.241 -4.826170 -6.518826 3.927959
615 123 3 -0.241 -4.813363 -5.714483 3.115854
616 124 2 0.000 3.867000 -5.376000 -6.046000
617 124 1 0.241 4.120902 -4.506735 -6.356070
618 124 1 0.241 4.062770 -5.363258 -5.109120
619 124 3 -0.241 3.184578 -5.487815 -6.154619
620 124 3 -0.241 4.239231 -5.872609 -6.369765
621 125 2 0.000 7.422000 -6.600000 -5.798000
622 125 1 0.241 7.370496 -7.530837 -5.580923
623 125 1 0.241 8.171204 -6.532715 -6.389944
624 125 3 -0.241 6.835714 -6.387307 -6.115853
625 125 3 -0.241 7.527001 -6.217001 -5.221557
626 126 2 0.000 6.691000 7.916000 -3.241000
627 126 1 0.241 6.813359 8.460544 -2.463355
628 126 1 0.241 6.406824 8.527802 -3.920098
629 126 3 -0.241 7.291676 7.606023 -3.422943
630 126 3 -0.241 6.201949 7.428311 -3.127037
631 127 2 0.000 8.193000 7.970000 -0.250000
632 127 1 0.241 9.144602 7.979192 -0.352964
633 127 1 0.241 7.951623 8.892579 -0.167431
634 127 3 -0.241 7.886338 7.683241 -0.810114
635 127 3 -0.241 8.009737 7.614008 0.324182
636 128 2 0.000 7.427000 -1.540000 5.062000
637 128 1 0.241 7.633646 -2.209199 4.409542
638 128 1 0.241 6.472113 -1.475560 5.045553
639 128 3 -0.241 7.650890 -1.735067 5.695894
640 128 3 -0.241 7.719259 -0.927760 4.889527
641 129 2 0.000 -6.826000 1.159000 -4.046000
642 129 1 0.241 -6.823310 2.096086 -3.850822
643 129 1 0.241 -6.096982 1.038504 -4.654478
644 129 3 -0.241 -6.726104 0.784609 -3.463031
645 129 3 -0.241 -7.430640 0.970093 -4.343867
646 130 2 0.000 2.922000 -7.089000 7.412000
647 130 1 0.241 2.282358 -6.991821 6.706560
648 130 1 0.241 2.452110 -7.562491 8.098470
649 130 3 -0.241 3.476935 -7.455749 7.193958
650 130 3 -0.241 3.132438 -6.462665 7.643127
651 131 2 0.000 -3.388000 -6.604000 7.042000
652 131 1 0.241 -3.734608 -7.098677 6.299444
653 131 1 0.241 -3.827342 -6.978155 7.805688
654 131 3 -0.241 -2.694458 -6.685120 7.091189
655 131 3 -0.241 -3.539380 -5.923546 6.978233
656 132 2 0.000 -6.372000 5.453000 -0.316000
657 132 1 0.241 -6.727740 5.488047 0.571948
658 132 1 0.241 -6.399891 6.359655 -0.621664
659 132 3 -0.241 -5.714014 5.214225 -0.309631
660 132 3 -0.241 -6.765351 5.042173 -0.724039
661 133 2 0.000 -8.359000 8.264000 -1.864000
662 133 1 0.241 -8.012357 8.987598 -1.342007
663 133 1 0.241 -9.279184 8.487823 -2.003271
664 133 3 -0.241 -8.020957 8.215632 -2.475055
665 133 3 -0.241 -8.301405 7.658821 -1.516954
666 134 2 0.000 4.269000 0.001000 -5.631000
667 134 1 0.241 3.670996 -0.149785 -4.898957
668 134 1 0.241 4.976522 0.527165 -5.258449
669 134 3 -0.241 4.515623 -0.605779 -5.877975
670 134 3 -0.241 3.946829 0.348835 -6.145992
671 135 2 0.000 4.691000 3.817000 -0.950000
672 135 1 0.241 3.831628 4.232344 -0.877886