# Ethanol
 9 atoms
 8 bonds
 13 angles
 0 dihedrals
 12 impropers
 9 atom types
 4 bond types
 7 angle types
 0 dihedral types
 12 improper types
 -3.0 3.0  xlo xhi
#-3.0 3.0  ylo yhi
 -3.0 3.0  zlo zhi
 -2.338  2.338 ylo yhi

 Masses

 1 12.010700 # C1
 2 12.010700 # C2
 3 15.999400 # Oe
 4 1.007940 # H11
 5 1.007940 # H12
 6 1.007940 # H21
 7 1.007940 # H22
 8 1.007940 # H23
 9 1.007940 # He

 Atoms

1 1 1  0.000  -0.42600 -0.11500 -0.14700  
2 1 2  0.265  1.04700 -0.38300  0.14700 
3 1 3 -0.700 -0.59900  1.24400 -0.48100
4 1 4  0.000 -1.02200 -0.35100  0.73500
5 1 5  0.000 -0.75000 -0.73800 -0.98100
6 1 6  0.000  1.37000  0.24000  0.98100
7 1 7  0.000  1.64200 -0.14700 -0.73500
8 1 8  0.000  1.18000 -1.43400  0.40500
9 1 9  0.435 -1.64200  1.43400 -0.68900

 Bonds

1 1 1 2
2 2 1 4
3 2 1 5
4 2 2 6
5 2 2 7
6 2 2 8
7 3 1 3
8 4 3 9

 Angles

1 1 4 1 3
2 1 5 1 3
3 2 4 1 2
4 2 5 1 2
5 3 4 1 5
6 4 3 1 2
7 5 9 3 1
8 6 6 2 7
9 6 7 2 8
10 6 8 2 6
11 7 6 2 1
12 7 7 2 1
13 7 8 2 1

 Impropers

1 1 2 1 3 9
2 2 5 1 3 9
3 3 4 1 3 9
4 4 3 1 2 6
5 5 3 1 2 7
6 6 3 1 2 8
7 7 4 1 2 6
8 8 4 1 2 7
9 9 4 1 2 8
10 10 5 1 2 6
11 11 5 1 2 7
12 12 5 1 2 8






