LAMMPS (31 Mar 2017)
# MD Run Graphene&CarbonNanotube

dimension	3
boundary	p p p

units       real
atom_style	full

read_data  ethanol.lammps
  orthogonal box = (-3 -2.338 -3) to (3 2.338 3)
  5 by 2 by 2 MPI processor grid
  reading atoms ...
  9 atoms
  scanning bonds ...
  4 = max bonds/atom
  scanning angles ...
  6 = max angles/atom
  scanning impropers ...
  12 = max impropers/atom
  reading bonds ...
  8 bonds
  reading angles ...
  13 angles
  reading impropers ...
  12 impropers
  4 = max # of 1-2 neighbors
  4 = max # of 1-3 neighbors
  7 = max # of 1-4 neighbors
  8 = max # of special neighbors
replicate 10 10 10
  orthogonal box = (-3 -2.338 -3) to (57 44.422 57)
  2 by 2 by 5 MPI processor grid
  9000 atoms
  8000 bonds
  13000 angles
  12000 impropers
  4 = max # of 1-2 neighbors
  4 = max # of 1-3 neighbors
  7 = max # of 1-4 neighbors
  8 = max # of special neighbors
#read_restart	res.300000

group Hydrogen type 4 5 6 7 8 9
6000 atoms in group Hydrogen
group Oxygen type 3
1000 atoms in group Oxygen
group Carbon type 1 2
2000 atoms in group Carbon
group ethanol union Hydrogen Oxygen Carbon
9000 atoms in group ethanol
group vmd union ethanol
9000 atoms in group vmd

############################
############################

pair_style      lj/cut/coul/long 15.0
pair_coeff      *   *    0.000 0.000
pair_coeff      1   1    0.118 3.905 #C1-C1
pair_coeff      2   2    0.207 3.775 #C2-C2
pair_coeff      3   3    0.170 3.070 #O-O
pair_coeff      1   2    0.156 3.840 #C1-C2
pair_coeff      1   3    0.142 3.488 #C1-O
pair_coeff      2   3    0.188 3.423 #C2-O
kspace_style pppm 1.0e-5

bond_style harmonic
bond_coeff 1 222. 1.52
bond_coeff 2 309. 1.11
bond_coeff 3 428. 1.42
bond_coeff 4 545. 0.94

angle_style harmonic
angle_coeff 1 45.90 109.44
angle_coeff 2 34.60 109.46
angle_coeff 3 35.50 120.00
angle_coeff 4 75.70 109.00
angle_coeff 5 57.50 109.50
angle_coeff 6 35.50 109.50
angle_coeff 7 34.60 109.46

improper_style harmonic
improper_coeff 1  1.30  180
improper_coeff 2  0.14  60
improper_coeff 3  0.14 -60
improper_coeff 4  0.16  180
improper_coeff 5  0.16  60
improper_coeff 6  0.16 -60
improper_coeff 7  0.16 -60
improper_coeff 8  0.16  180
improper_coeff 9  0.16  60
improper_coeff 10 0.16  60
improper_coeff 11 0.16 -60
improper_coeff 12 0.16 -180

#neighbor       2.0 nsq
neigh_modify    every 1 delay 0 check no
#special_bonds lj/coul 0.0 0.0 0.0

##############################

#compute myRDF Oxygen  rdf 1000 3 3 # O-O
#fix 10 Oxygen  ave/time 10 100 1000 c_myRDF file rdf.dat mode vector #ave running

####################

#variable dl equal 2.8
#variable vp equal ((lx-v_dl)*(ly-v_dl)*(lz-v_dl)) #effective volume
variable Den equal (46.06844*count(Oxygen)/vol*1.66054) #gr/cm3
variable Eb  equal etotal/count(Oxygen)
variable Pb  equal pe/count(Oxygen)

################################## Energies

restart		100000 res

####################

thermo          100
thermo_style    custom step temp pe etotal press v_Pb v_Eb v_Den #lx ly lz

dump           1 vmd xyz 1000 dump.xyz
dump_modify	   1 sort id element C C O H H H H H H

#################### relaxing

#timestep 		0.01
#velocity   	vmd create 10 21234 dist gaussian mom yes rot yes
#fix        	rlx vmd nvt temp 300 300 1

#run 			1000
#unfix			rlx

# -------------------

timestep 		1.0
velocity   		vmd create 10 21234 dist gaussian mom yes rot yes
fix        		rlx vmd npt temp 300 300 100 iso 1 1 1000 #z 1 1 1000 couple xz

run 			200000
PPPM initialization ...
WARNING: Using 12-bit tables for long-range coulomb (../kspace.cpp:321)
  G vector (1/distance) = 0.182631
  grid = 24 18 24
  stencil order = 5
  estimated absolute RMS force accuracy = 0.00256539
  estimated relative force accuracy = 7.72561e-06
  using double precision FFTs
  3d grid and FFT values/proc = 2618 864
Neighbor list info ...
  update every 1 steps, delay 0 steps, check no
  max neighbors/atom: 2000, page size: 100000
  master list distance cutoff = 17
  ghost atom cutoff = 17
  binsize = 8.5, bins = 8 6 8
  1 neighbor lists, perpetual/occasional/extra = 1 0 0
  (1) pair lj/cut/coul/long, perpetual
      attributes: half, newton on
      pair build: half/bin/newton
      stencil: half/bin/3d/newton
      bin: standard
Per MPI rank memory allocation (min/avg/max) = 14.3 | 14.32 | 14.34 Mbytes
Step Temp PotEng TotEng Press v_Pb v_Eb v_Den 
       0           10    18833.296    19101.539   -12228.406    18.833296    19.101539   0.45443926 
     100    426.10213    6798.6602    18228.556   -1892.1293    6.7986602    18.228556   0.45501683 
     200    101.21382    17354.355    20069.346     13335.91    17.354355    20.069346   0.45991454 
     300    441.73524    7815.3811    19664.624   -4814.5643    7.8153811    19.664624   0.46808251 
     400    209.32322    14524.585    20139.536   -19228.486    14.524585    20.139536   0.47790786 
     500    320.08783    11611.377    20197.512    5499.5522    11.611377    20.197512   0.48905818 
     600     326.3114    11526.314    20279.392    21023.797    11.526314    20.279392   0.49845545 
     700    335.01285    10588.753    19575.242   -18617.356    10.588753    19.575242   0.50547531 
     800    273.97536    11607.783    18956.983   -16705.784    11.607783    18.956983     0.512025 
     900    364.12346    8233.4467    18000.807    4868.1061    8.2334467    18.000807   0.51852858 
    1000    297.83897    9575.2739    17564.599      10704.5    9.5752739    17.564599   0.52479794 
    1100    281.78913    9458.0461    17016.845    6021.9777    9.4580461    17.016845   0.53069749 
    1200    339.39839    7242.5934    16346.721   -5650.0106    7.2425934    16.346721   0.53677345 
    1300    290.30545    8263.5256    16050.769   -7011.0743    8.2635256    16.050769   0.54228338 
    1400    287.17567    8021.1488    15724.438   -6300.7975    8.0211488    15.724438   0.54756402 
    1500    310.89143    7130.2425     15469.69   -5102.5215    7.1302425     15.46969   0.55347845 
    1600    303.56334    7169.0254    15311.902    9538.6329    7.1690254    15.311902   0.55887535 
    1700    293.60606    7284.0658    15159.846    5596.0506    7.2840658    15.159846   0.56390892 
    1800     299.5323     7018.071    15052.818   -6954.6614     7.018071    15.052818   0.56916422 
    1900    312.10556    6513.2225    14885.239    3268.7643    6.5132225    14.885239   0.57388205 
    2000    291.95944     6927.865    14759.475   -4407.9333     6.927865    14.759475   0.57867068 
    2100    302.58626    6525.0835    14641.751   -7170.9289    6.5250835    14.641751   0.58332039 
    2200    300.27649    6502.7832    14557.493    2760.6092    6.5027832    14.557493   0.58781693 
    2300    297.77471    6543.0506    14530.652   -525.80275    6.5430506    14.530652   0.59250242 
    2400    301.28159    6441.7632    14523.434    535.79293    6.4417632    14.523434   0.59703544 
    2500    298.23499    6541.3244    14541.272    2995.5213    6.5413244    14.541272   0.60170277 
    2600    308.74097    6145.8493    14427.613   -3315.3899    6.1458493    14.427613    0.6063251 
    2700    287.80233    6602.7791    14322.878   -819.89385    6.6027791    14.322878   0.61098682 
    2800    304.29854    6016.2579    14178.856   -2658.1454    6.0162579    14.178856   0.61594148 
    2900    302.96794    6108.8238     14235.73   -2050.4685    6.1088238     14.23573   0.62076207 
    3000    296.50036    6248.4466    14201.864     1943.401    6.2484466    14.201864   0.62507839 
    3100    295.78517    6147.5366    14081.769   -3265.1317    6.1475366    14.081769    0.6290023 
    3200    303.52968    5824.9099    13966.884     822.9281    5.8249099    13.966884   0.63353511 
    3300    302.91783    5782.4134    13907.975    1182.7227    5.7824134    13.907975   0.63759007 
    3400    293.57892    5998.1714    13873.223    -3168.229    5.9981714    13.873223   0.64175623 
    3500    297.33765    5900.8283    13876.705    2669.5491    5.9008283    13.876705   0.64598094 
    3600    305.99409    5703.1748    13911.255   -414.54246    5.7031748    13.911255   0.64979626 
    3700    305.84392    5724.8917    13928.944   -2482.1098    5.7248917    13.928944   0.65375776 
    3800    304.71019    5600.0152    13773.656    1320.9899    5.6000152    13.773656   0.65773787 
    3900    292.49663    5760.4694    13606.489   -3432.3231    5.7604694    13.606489   0.66175113 
    4000    302.85575    5436.8303    13560.727   -70.238642    5.4368303    13.560727   0.66562954 
    4100    303.98293    5456.7645    13610.897    1764.4525    5.4567645    13.610897   0.66931085 
    4200    294.37634    5796.8597    13693.302   -2485.1565    5.7968597    13.693302   0.67295099 
    4300    314.50347    5227.0705    13663.409    342.88708    5.2270705    13.663409   0.67629649 
    4400    295.46165    5577.7501    13503.305   -1845.8525    5.5777501    13.503305    0.6801973 
    4500    297.58563    5429.4765    13412.006   -1499.7166    5.4294765    13.412006    0.6849121 
    4600    301.09182    5302.0708    13378.651    2125.2385    5.3020708    13.378651   0.69027579 
    4700    300.07395    5329.4252    13378.702   -1888.0594    5.3294252    13.378702   0.69497232 
    4800    299.32716    5243.1412    13272.386    979.65015    5.2431412    13.272386   0.69904999 
    4900    301.58798     5101.077    13190.966     1386.605     5.101077    13.190966   0.70240102 
    5000    290.26379    5449.9816    13236.107   -2263.0434    5.4499816    13.236107   0.70635306 
    5100    309.09933    5086.1589    13377.535     815.1813    5.0861589    13.377535   0.71016905 
    5200     295.8635    5472.1641    13408.498   -1774.5819    5.4721641    13.408498   0.71369999 
    5300    308.72095    4956.5951    13237.822   -1323.3606    4.9565951    13.237822   0.71701283 
    5400    297.00753      5230.99    13198.012    1564.0908      5.23099    13.198012   0.72089816 
    5500    296.79054    5185.9318    13147.133   -374.88888    5.1859318    13.147133   0.72486218 
    5600    304.90164    4955.3045     13134.08    870.24725    4.9553045     13.13408   0.72862164 
    5700    295.92319    5179.9357    13117.871   -921.76612    5.1799357    13.117871   0.73234237 
    5800    301.07862    4945.9746    13022.201   -2652.7501    4.9459746    13.022201   0.73651847 
    5900    304.43721    4858.2309    13024.549    445.40713    4.8582309    13.024549   0.74008913 
    6000    294.73779    5072.1537    12978.291   -996.55816    5.0721537    12.978291   0.74262234 
    6100     305.6254    4699.5553    12897.746   -334.39274    4.6995553    12.897746   0.74520011 
    6200    296.19259    4917.7255    12862.887    1515.2185    4.9177255    12.862887   0.74851993 
    6300    299.81622    4676.7035    12719.067   -1123.3328    4.6767035    12.719067   0.75201844 
    6400    295.83485    4742.1965    12677.762   -1253.3538    4.7421965    12.677762   0.75607804 
    6500    301.04103    4744.6111    12819.829   -1852.3288    4.7446111    12.819829   0.76077155 
    6600    307.85845    4643.1409    12901.231   -1025.4372    4.6431409    12.901231   0.76473426 
    6700    297.82617     4862.895    12851.876     1505.988     4.862895    12.851876   0.76760127 
    6800    303.72625    4586.5035     12733.75    161.16486    4.5865035     12.73375   0.76940626 
    6900    293.86998    4861.5353    12744.395   -644.66003    4.8615353    12.744395   0.77089046 
    7000    303.59521     4541.643    12685.375    139.21221     4.541643    12.685375   0.77275755 
    7100    299.64366     4684.851    12722.585   -1693.5471     4.684851    12.722585   0.77503172 
    7200    300.15342    4831.6642    12883.072   -579.63387    4.8316642    12.883072   0.77799553 
    7300    305.71263     4668.519    12869.049   -983.60625     4.668519    12.869049   0.78076458 
    7400    303.63367    4556.4581    12701.222    152.77211    4.5564581    12.701222   0.78319407 
    7500     299.1009    4610.4602    12633.635    2011.6262    4.6104602    12.633635   0.78539264 
    7600    297.14238    4667.4279    12638.067   -785.21734    4.6674279    12.638067   0.78702327 
    7700    303.97698    4493.6739    12647.647    81.548535    4.4936739    12.647647    0.7893345 
    7800    297.51793    4571.8951    12552.608     855.7693    4.5718951    12.552608   0.79031241 
    7900    301.24157    4322.5243    12403.121   -1176.6996    4.3225243    12.403121   0.79033205 
    8000    294.66289     4529.874    12434.003   -735.18105     4.529874    12.434003   0.79098215 
    8100    298.89359    4530.3202    12547.935   -546.45544    4.5303202    12.547935   0.79266064 
    8200    301.52685     4607.528    12695.777   -1008.4493     4.607528    12.695777   0.79442179 
    8300    300.85155    4604.7934    12674.929    66.392826    4.6047934    12.674929   0.79539301 
    8400    308.68158    4296.4183    12576.588    237.66009    4.2964183    12.576588   0.79723379 
    8500    296.21844    4523.1505    12469.006   -257.17404    4.5231505    12.469006   0.79946775 
    8600    301.26798    4309.9204    12391.226    253.58326    4.3099204    12.391226   0.80276525 
    8700    299.09865    4366.3828    12389.498   -255.08674    4.3663828    12.389498   0.80524568 
    8800    302.29526    4386.9329    12495.795    948.09246    4.3869329    12.495795   0.80647296 
    8900    302.85694    4557.0757    12681.004   -53.564965    4.5570757    12.681004    0.8073993 
    9000    300.53207    4572.1007    12633.666   -977.28204    4.5721007    12.633666   0.80754851 
    9100    303.55782    4358.1934    12500.922    27.949992    4.3581934    12.500922   0.80790583 
    9200    300.07436    4406.5062    12455.794    280.08887    4.4065062    12.455794   0.80884308 
    9300    302.39433    4323.6237    12435.143    597.83172    4.3236237    12.435143   0.80957522 
    9400    299.82013    4308.4304    12350.898    344.07159    4.3084304    12.350898   0.81109624 
    9500    294.43459    4308.4865    12206.491   -1284.4128    4.3084865    12.206491   0.81277943 
    9600    294.99989    4324.8633    12238.032   -610.65723    4.3248633    12.238032   0.81440327 
    9700     301.1069    4302.1159    12379.101   -718.62024    4.3021159    12.379101   0.81620326 
    9800    307.64682    4137.0586    12389.472   -339.30556    4.1370586    12.389472    0.8171267 
    9900    298.97406    4338.0711    12357.844    1788.9895    4.3380711    12.357844   0.81721257 
   10000     301.9165    4178.7345    12277.436    797.00018    4.1787345    12.277436   0.81713138 
   10100    299.08057    4183.2965    12205.926   -32.250236    4.1832965    12.205926    0.8176697 
   10200    294.95294    4238.5632    12150.472   -121.39537    4.2385632    12.150472   0.81883066 
   10300    299.88339    4042.1982    12086.363   -413.82534    4.0421982    12.086363   0.82036518 
   10400    303.31575    4051.8242     12188.06   -612.80891    4.0518242     12.18806   0.82200424 
   10500    300.26766    4234.0077    12288.481   -126.43574    4.2340077    12.288481    0.8231482 
   10600    301.82663    4113.8858    12210.177   -755.03888    4.1138858    12.210177   0.82335986 
   10700    296.04531    4124.0901    12065.301    76.605126    4.1240901    12.065301   0.82387194 
   10800    300.89129    3983.3551    12054.556    862.37645    3.9833551    12.054556   0.82507904 
   10900    298.52282    4132.9895    12140.658     25.87224    4.1329895    12.140658   0.82664036 
   11000     303.9295    4008.2626    12160.962    1068.9348    4.0082626    12.160962   0.82880868 
   11100    299.47624     4215.518    12248.761    747.50131     4.215518    12.248761   0.82954062 
   11200    301.71529    4196.7079    12290.012    133.83379    4.1967079    12.290012   0.82978605 
   11300    302.23068    4116.9679    12224.097   -377.58692    4.1169679    12.224097   0.83094561 
   11400    299.91197    4011.5308    12056.462   -396.91343    4.0115308    12.056462   0.83177635 
   11500    296.97938    4002.1335      11968.4    -673.3584    4.0021335      11.9684    0.8325174 
   11600    295.88499    4064.8558    12001.766   -735.48534    4.0648558    12.001766   0.83315864 
   11700    308.66227    3818.1555    12097.808    831.80809    3.8181555    12.097808   0.83395069 
   11800    298.31029    4195.3962    12197.364    509.61955    4.1953962    12.197364   0.83522699 
   11900    303.57528    4154.1621    12297.359    -1487.297    4.1541621    12.297359   0.83531941 
   12000    303.45937    4202.2434    12342.331     271.2818    4.2022434    12.342331   0.83523675 
   12100    305.94665    3946.3353    12153.143    249.32486    3.9463353    12.153143    0.8347834 
   12200    299.10328    4041.3404    12064.579    -375.2137    4.0413404    12.064579   0.83453968 
   12300    299.13882    4008.9815    12033.174    257.32358    4.0089815    12.033174   0.83401776 
   12400    294.61162    4142.3248    12045.078   -941.22174    4.1423248    12.045078   0.83316216 
   12500    303.46529    3960.3877    12100.635    477.91748    3.9603877    12.100635   0.83451584 
   12600    309.03818    3928.2603    12217.996    761.69172    3.9282603    12.217996   0.83753325 
   12700    295.28408    4216.1954    12136.987   -453.42994    4.2161954    12.136987   0.84058053 
   12800    299.92099    3976.1519    12021.325    329.24165    3.9761519    12.021325   0.84299219 
   12900    302.40756    3855.6451    11967.519   -581.74374    3.8556451    11.967519   0.84513845 
   13000    298.37182    3964.2268    11967.845    -1208.291    3.9642268    11.967845   0.84649591 
   13100    301.41793     3895.632     11980.96    1620.8997     3.895632     11.98096   0.84753035 
   13200    301.18617     4000.796    12079.907    338.75313     4.000796    12.079907   0.84661741 
   13300    297.75383    4041.0217    12028.063   -157.05572    4.0410217    12.028063   0.84483966 
   13400    303.52257    3732.0548    11873.838    1312.4095    3.7320548    11.873838   0.84274465 
   13500    297.01586    3894.1535    11861.399    928.27897    3.8941535    11.861399    0.8410366 
   13600    301.37576    3919.2071    12003.404   -41.136156    3.9192071    12.003404   0.84064965 
   13700    302.39391    4022.5339    12134.042   -372.75925    4.0225339    12.134042   0.84071574 
   13800    303.27302    3939.7323    12074.822    -1020.906    3.9397323    12.074822     0.841055 
   13900    298.28441    4005.5903    12006.864   -933.97098    4.0055903    12.006864   0.84174764 
   14000    304.70632    3761.3882    11934.925    312.46462    3.7613882    11.934925   0.84222235 
   14100    293.40715    4068.6683    11939.113    886.21062    4.0686683    11.939113   0.84352827 
   14200    304.79704    3788.7665    11964.737    361.06746    3.7887665    11.964737   0.84445589 
   14300    300.19357    3838.5033    11890.989     549.9608    3.8385033    11.890989   0.84380669 
   14400    296.85614    3782.1622    11745.123    682.60649    3.7821622    11.745123    0.8437831 
   14500    295.16842    3863.9423    11781.631   -27.296315    3.8639423    11.781631    0.8441843 
   14600     301.1423    3824.0146    11901.949    305.88044    3.8240146    11.901949   0.84526845 
   14700    305.76846     3744.688    11946.716   -329.39298     3.744688    11.946716   0.84638502 
   14800    298.79993    3884.1246    11899.226   -1380.3831    3.8841246    11.899226   0.84751197 
   14900    297.22189    3875.2914    11848.063   -256.81906    3.8752914    11.848063   0.84828651 
   15000     302.6526    3696.9077    11815.355    241.31611    3.6969077    11.815355   0.84907951 
   15100    302.53549    3761.2601    11876.566   -459.14891    3.7612601    11.876566   0.85023762 
   15200    295.37159    4003.4481    11926.587    136.04553    4.0034481    11.926587   0.85116927 
   15300    304.48032    3735.1146    11902.589    209.00956    3.7351146    11.902589     0.851689 
   15400    302.10918    3795.5312    11899.401     482.0564    3.7955312    11.899401   0.85272352 
   15500    300.58955    3705.3767    11768.484    314.12018    3.7053767    11.768484   0.85287948 
   15600    296.69563    3718.0343     11676.69    132.19127    3.7180343     11.67669   0.85266545 
   15700    298.02071    3727.7109    11721.911    493.69443    3.7277109    11.721911   0.85155935 
   15800    302.98208    3721.0677    11848.353   -43.068489    3.7210677    11.848353   0.84991118 
   15900    296.53523    3983.3476    11937.701    249.90204    3.9833476    11.937701   0.84882874 
   16000    304.13825    3728.4617     11886.76   -159.90411    3.7284617     11.88676   0.84855906 
   16100    299.15069    3751.6235    11776.134   -326.75979    3.7516235    11.776134    0.8491693 
   16200    296.91317    3728.4996    11692.991   -1218.3756    3.7284996    11.692991   0.85033719 
   16300    298.07475    3733.0742    11728.724    69.598322    3.7330742    11.728724   0.85161573 
   16400     300.1204    3755.8509    11806.374     400.9846    3.7558509    11.806374   0.85219922 
   16500    302.67706    3712.0614    11831.165   -95.118659    3.7120614    11.831165   0.85199101 
   16600    304.53409    3635.4978    11804.415    727.57285    3.6354978    11.804415   0.85188575 
   16700    292.02699    3952.6626    11786.085    239.61371    3.9526626    11.786085    0.8523898 
   16800    305.44304    3385.0664    11578.365    639.59881    3.3850664    11.578365   0.85387136 
   16900    293.49155    3662.6467    11535.355   -308.84773    3.6626467    11.535355   0.85587988 
   17000    295.96126    3699.2888    11638.245   -881.89143    3.6992888    11.638245   0.85780245 
   17100    297.40681    3735.3245    11713.057   -680.45172    3.7353245    11.713057   0.85945694 
   17200    299.14135    3737.3025    11761.563   -506.36109    3.7373025    11.761563   0.86038369 
   17300    308.46562    3507.4912    11781.868    926.50669    3.5074912    11.781868   0.86045416 
   17400    296.73085    3842.8863    11802.486     42.58402    3.8428863    11.802486   0.85958475 
   17500    299.16778    3619.1426    11644.112   -526.47816    3.6191426    11.644112   0.85986963 
   17600    293.65853    3743.5597    11620.747   -233.16137    3.7435597    11.620747   0.86015205 
   17700    303.99201    3567.2854    11721.661    713.56966    3.5672854    11.721661   0.86059861 
   17800     307.5134    3559.0638    11807.898    507.28218    3.5590638    11.807898   0.86069126 
   17900     292.6293    3968.6693    11818.248    682.95901    3.9686693    11.818248   0.86030119 
   18000    300.43213    3710.8195    11769.704   -253.53848    3.7108195    11.769704   0.85971902 
   18100    301.79348    3585.7777    11681.179   -776.73584    3.5857777    11.681179   0.86025791 
   18200    293.90358    3756.2698     11640.03   -1300.0838    3.7562698     11.64003   0.86119021 
   18300    302.63536    3458.8179    11576.803   -516.27091    3.4588179    11.576803   0.86166517 
   18400    297.56556    3661.3268    11643.318    1289.3898    3.6613268    11.643318   0.86262765 
   18500    298.25243    3725.4983    11725.914    737.25623    3.7254983    11.725914   0.86315027 
   18600    303.26097    3673.2184    11807.984    1313.8322    3.6732184    11.807984   0.86341944 
   18700    307.41235    3502.2363     11748.36    536.67955    3.5022363     11.74836   0.86226754 
   18800    290.09273    3822.7326     11604.27   -1562.7216    3.8227326     11.60427   0.85986679 
   18900    305.48467    3376.3319    11570.747    658.76451    3.3763319    11.570747   0.85828489 
   19000    297.92594    3704.7987    11696.456   -99.805989    3.7047987    11.696456   0.85713691 
   19100    298.70922    3760.0251    11772.694   -1186.5942    3.7600251    11.772694   0.85713292 
   19200    301.02737    3701.0293    11775.881   -122.21585    3.7010293    11.775881   0.85881863 
   19300    299.14993    3627.8941    11652.384   -930.24462    3.6278941    11.652384   0.85995321 
   19400    299.53861    3433.8256    11468.742   -25.280643    3.4338256    11.468742   0.86142395 
   19500    299.69399    3491.7751     11530.86    1562.9474    3.4917751     11.53086   0.86401814 
   19600    300.24661    3592.7318     11646.64   -15.865281    3.5927318     11.64664   0.86711515 
   19700    299.22206    3707.0709    11733.496   -548.80793    3.7070709    11.733496   0.87063682 
   19800    310.30349    3293.4063    11617.083    974.87217    3.2934063    11.617083   0.87348015 
   19900    292.39986    3644.0737    11487.498   -255.53272    3.6440737    11.487498   0.87414425 
   20000    298.04073    3507.4755    11502.212   -333.48374    3.5074755    11.502212    0.8719494 
   20100    304.10324    3451.3186    11608.678     -384.231    3.4513186    11.608678   0.86856952 
   20200     299.6233    3663.5535    11700.742    611.12923    3.6635535    11.700742   0.86563968 
   20300    302.45162    3535.6179    11648.674     139.3611    3.5356179    11.648674   0.86302609 
   20400    304.59264    3327.3209    11497.808    324.30902    3.3273209    11.497808   0.86329749 
   20500    291.50184    3603.6313    11422.967    104.22112    3.6036313    11.422967    0.8655924 
   20600     294.6704    3583.1106    11487.441   -1067.9188    3.5831106    11.487441   0.86823634 
   20700    306.13351    3381.3665    11593.187   -642.78003    3.3813665    11.593187   0.87111144 
   20800    297.99341    3595.6508    11589.118   -60.453088    3.5956508    11.589118   0.87356058 
   20900    300.63239    3453.9337     11518.19   -727.28578    3.4539337     11.51819   0.87425538 
   21000    298.54067    3446.6471    11454.794    358.91523    3.4466471    11.454794   0.87404528 
   21100    301.18358    3352.8838    11431.925    222.93112    3.3528838    11.431925   0.87298275 
   21200    299.47542     3483.162    11516.383    487.44835     3.483162    11.516383   0.87249344 
   21300    298.47994    3661.5018     11668.02    45.429118    3.6615018     11.66802   0.87189901 
   21400    302.05857    3541.8671     11644.38    402.80823    3.5418671     11.64438   0.87207533 
   21500     299.3701    3471.8868    11502.283    273.69161    3.4718868    11.502283   0.87230969 
   21600    300.55455    3408.9191    11471.087   -798.11897    3.4089191    11.471087   0.87177739 
   21700    297.38899     3543.703    11520.957   -1549.5242     3.543703    11.520957   0.87082115 
   21800    300.64605    3477.9504    11542.573   -402.63654    3.4779504    11.542573   0.86910787 
   21900    301.01724    3498.4097    11572.989   -157.66222    3.4984097    11.572989   0.86756655 
   22000    299.11866    3667.6389     11691.29     465.7112    3.6676389     11.69129    0.8677395 
   22100    305.83815    3514.7966    11718.694   -153.60073    3.5147966    11.718694    0.8685761 
   22200    298.58193    3629.8349    11639.089   -735.96602    3.6298349    11.639089   0.87109431 
   22300    301.67265    3407.4144    11499.575   -1423.5978    3.4074144    11.499575    0.8737098 
   22400     296.2651    3503.8737     11450.98   -317.92499    3.5038737     11.45098    0.8772308 
   22500    302.80845    3281.5565    11404.184    436.82868    3.2815565    11.404184   0.88025363 
   22600    299.26661    3442.2489    11469.869     160.9244    3.4422489    11.469869   0.88106901 
   22700    300.31805    3576.8657     11632.69    378.70855    3.5768657     11.63269   0.88108223 
   22800    302.52555    3528.3501    11643.389    992.45204    3.5283501    11.643389   0.88001496 
   22900    301.28366    3430.1955    11511.922    255.08693    3.4301955    11.511922   0.87766787 
   23000    302.86908    3260.2902    11384.544   -67.595104    3.2602902    11.384544   0.87542423 
   23100    294.83107    3516.2868    11424.927    -385.4145    3.5162868    11.424927   0.87375907 
   23200    294.40509    3609.9016    11507.115   -719.29149    3.6099016    11.507115   0.87245947 
   23300    305.61407    3357.0307    11554.917   -215.75236    3.3570307    11.554917   0.87150683 
   23400    303.27196    3394.2317    11529.293    778.98286    3.3942317    11.529293   0.87062294 
   23500     292.5272    3501.6183    11348.458     -373.404    3.5016183    11.348458   0.86991379 
   23600     300.9344    3259.0998    11331.457   -840.88028    3.2590998    11.331457   0.87005077 
   23700    296.96952    3536.1077     11502.11    1127.6212    3.5361077     11.50211   0.87162375 
   23800    304.89915    3357.9769    11536.686   -897.17561    3.3579769    11.536686   0.87321568 
   23900    302.83479    3381.3791    11504.713   -793.66527    3.3813791    11.504713   0.87499367 
   24000    294.07883    3544.4897    11432.951    870.33428    3.5444897    11.432951   0.87631402 
   24100    295.34999    3340.9582    11263.518   -209.87123    3.3409582    11.263518   0.87711015 
   24200    294.58913    3347.1015    11249.252    1497.1092    3.3471015    11.249252   0.87784621 
   24300    304.04259    3329.4203    11485.153    810.56618    3.3294203    11.485153   0.87817098 
   24400    301.12542    3447.3689     11524.85    31.811917    3.4473689     11.52485   0.87792583 
   24500    301.85524    3374.0898    11471.148    82.894812    3.3740898    11.471148    0.8772967 
   24600    301.55738    3257.6879    11346.756   -1687.1222    3.2576879    11.346756   0.87714577 
   24700     291.1125    3634.9896    11443.881   -973.32176    3.6349896    11.443881   0.87821377 
   24800    302.79572    3446.8882    11569.174    10.925372    3.4468882    11.569174   0.87998085 
   24900    303.75735    3402.8907    11550.972   -875.54163    3.4028907    11.550972   0.88153397 
   25000    299.74866     3487.015    11527.566    1230.0245     3.487015    11.527566   0.88305068 
   25100    301.24594    3368.0053     11448.72    362.44249    3.3680053     11.44872    0.8838508 
   25200    297.94215    3370.6738    11362.766   -10.674176    3.3706738    11.362766   0.88386777 
   25300    293.90541    3466.9379    11350.748    679.16068    3.4669379    11.350748   0.88300733 
   25400    306.05181    3322.9319     11532.56    299.72189    3.3229319     11.53256   0.88169966 
   25500    304.31121    3484.1173    11647.055    276.60726    3.4841173    11.647055   0.88012586 
   25600    302.77442    3457.3708    11579.085   -930.81698    3.4573708    11.579085   0.87862382 
   25700    295.45113     3544.537     11469.81   -905.38882     3.544537     11.46981   0.87860498 
   25800    297.37216    3379.3059    11356.109   -1108.3104    3.3793059    11.356109   0.87944241 
   25900    303.45244    3212.4671    11352.369   -2095.8742    3.2124671    11.352369   0.88138667 
   26000    299.66268    3450.3671    11488.612    306.98174    3.4503671    11.488612   0.88300855 
   26100    298.64668    3626.3995     11637.39    1757.7901    3.6263995     11.63739   0.88442352 
   26200    301.31878    3481.6992    11564.367    1530.3358    3.4816992    11.564367    0.8854174 
   26300    302.28843    3377.9356    11486.614    2182.4458    3.3779356    11.486614   0.88526432 
   26400     303.2547    3227.7239    11362.322   -627.68426    3.2277239    11.362322   0.88390374 
   26500     295.5616    3405.2802    11333.516   -1580.6051    3.4052802    11.333516   0.88129697 
   26600    297.29228    3390.2781    11364.938    4.2870479    3.3902781    11.364938    0.8791343 
   26700    302.09667    3464.1218    11567.656   -1371.3198    3.4641218    11.567656   0.87783212 
   26800    301.35549    3511.2048    11594.858   -127.91061    3.5112048    11.594858   0.87741741 
   26900     303.6917    3333.6909    11480.011    867.52348    3.3336909    11.480011   0.87768209 
   27000    295.95956    3463.7675    11402.678   -367.82915    3.4637675    11.402678   0.87837961 
   27100    297.07584    3388.2049    11357.059    220.96623    3.3882049    11.357059   0.88025323 
   27200    301.35135    3283.1803    11366.722   -630.26194    3.2831803    11.366722   0.88208592 
   27300    297.43249     3431.477    11409.898   -38.285323     3.431477    11.409898   0.88451217 
   27400    308.13605    3220.4631        11486   -205.29487    3.2204631       11.486     0.886219 
   27500    298.04886    3550.3532    11545.308   -735.79908    3.5503532    11.545308   0.88713942 
   27600    304.40469    3218.5277    11383.973    827.65082    3.2185277    11.383973   0.88621082 
   27700    295.08761     3390.135    11305.656   -535.44551     3.390135    11.305656   0.88366156 
   27800    299.33922    3290.5246    11320.092   -717.61912    3.2905246    11.320092   0.88171721 
   27900    298.32753    3436.8573    11439.287    624.32049    3.4368573    11.439287   0.88036151 
   28000    308.14311    3308.3243     11574.05    209.51997    3.3083243     11.57405   0.87918658 
   28100    299.82777    3530.8089    11573.482    -263.4461    3.5308089    11.573482    0.8776829 
   28200    299.25241    3464.5854    11491.825    482.44029    3.4645854    11.491825   0.87733675 
   28300    300.68762    3357.9409    11423.679   -281.47064    3.3579409    11.423679   0.87796778 
   28400    297.23181    3405.1925    11378.231    -456.0174    3.4051925    11.378231   0.87925095 
   28500    300.90982     3288.838    11360.536    1084.2365     3.288838    11.360536   0.88181244 
   28600    301.48454    3337.0488    11424.164    186.33272    3.3370488    11.424164   0.88429825 
   28700    305.30194    3312.8278    11502.342    -163.4532    3.3128278    11.502342    0.8861862 
   28800    299.52261     3510.675    11545.162    1402.0354     3.510675    11.545162     0.886759 
   28900    297.06563     3437.335    11405.915   -1237.5219     3.437335    11.405915   0.88595628 
   29000    300.13246    3219.8187    11270.665   -1126.8397    3.2198187    11.270665   0.88450794 
   29100    300.63679     3199.855    11264.229    571.50553     3.199855    11.264229   0.88301149 
   29200    301.70491    3299.0279    11392.054   -793.14734    3.2990279    11.392054     0.881904 
   29300     302.4494    3348.6714    11461.668   -62.617486    3.3486714    11.461668   0.88106666 
   29400    301.96791    3391.1805    11491.261    188.71869    3.3911805    11.491261   0.88038666 
   29500    295.68136    3544.5823    11476.031   -285.52399    3.5445823    11.476031   0.88146874 
   29600    300.96447     3245.751    11318.915    98.694467     3.245751    11.318915   0.88364828 
   29700    299.34441    3171.7545    11201.462     256.7249    3.1717545    11.201462   0.88660708 
   29800     294.8645    3364.1852    11273.722    -197.5534    3.3641852    11.273722   0.88917567 
   29900    302.24059    3244.7567    11352.152    348.07378    3.2447567    11.352152   0.89081469 
   30000    297.56657    3420.0313    11402.049    216.00798    3.4200313    11.402049   0.89103659 
   30100     301.9365     3244.054    11343.292    1246.8351     3.244054    11.343292   0.89035154 
   30200    296.74921    3196.5832    11156.676    -500.9021    3.1965832    11.156676   0.88848286 
   30300    299.29653    3130.7588    11159.182   -1012.9318    3.1307588    11.159182     0.887196 
   30400    297.27913    3309.7293    11284.037   -192.59802    3.3097293    11.284037    0.8867152 
   30500    299.43781     3334.663    11366.876   -389.06892     3.334663    11.366876   0.88601398 
   30600    298.69464    3388.6562    11400.934    1089.8891    3.3886562    11.400934   0.88556274 
   30700    301.33942    3375.1095    11458.331    838.65885    3.3751095    11.458331   0.88556982 
   30800    302.23726    3455.2598    11562.566   -470.41915    3.4552598    11.562566   0.88611607 
   30900    303.94922    3470.7281    11623.956   -362.62364    3.4707281    11.623956   0.88583013 
   31000    300.11678    3372.9622    11423.388   -453.54345    3.3729622    11.423388    0.8845791 
   31100    298.90043    3313.2758    11331.074    357.43264    3.3132758    11.331074   0.88419819 
   31200    302.16888    3225.1864    11330.658    8.7672515    3.2251864    11.330658   0.88514102 
   31300    295.08203    3449.1307    11364.502    105.87265    3.4491307    11.364502   0.88733665 
   31400    302.72156    3288.5673    11408.864    507.07345    3.2885673    11.408864    0.8910843 
   31500    298.16417     3560.032     11558.08   -519.16073     3.560032     11.55808    0.8935745 
   31600    311.35487    3136.6074    11488.487    525.21885    3.1366074    11.488487   0.89389712 
   31700    292.66333    3498.4775    11348.969    30.941495    3.4984775    11.348969   0.89261758 
   31800    303.72515    3125.7468    11272.964    390.80027    3.1257468    11.272964   0.89041367 
   31900    297.88212    3340.3858    11330.868    404.97204    3.3403858    11.330868   0.88752789 
   32000    298.30684    3440.5528    11442.428   -829.94548    3.4405528    11.442428   0.88560695 
   32100    306.24241    3312.5305    11527.272   -822.57901    3.3125305    11.527272   0.88440357 
   32200    299.32273    3489.6659    11518.792   -192.09001    3.4896659    11.518792   0.88343938 
   32300    303.87965    3116.9113    11268.273   -504.24042    3.1169113    11.268273   0.88279331 
   32400    293.89765    3374.4959    11258.097   -653.36931    3.3744959    11.258097   0.88290571 
   32500    298.73474    3306.8249    11320.178   -30.012361    3.3068249    11.320178   0.88489331 
   32600    303.19908    3291.1614    11424.267   -51.476957    3.2911614    11.424267   0.88745342 
   32700    303.79851    3262.6472    11411.832    369.97667    3.2626472    11.411832   0.89002024 
   32800    291.85408    3450.0172    11278.801    1041.5288    3.4500172    11.278801   0.89263877 
   32900    301.03013    3053.2379    11128.163    1322.7958    3.0532379    11.128163   0.89446896 
   33000    295.49359    3287.3935    11213.805    10.624986    3.2873935    11.213805    0.8947778 
   33100    302.25758    3182.3918    11290.243    498.22015    3.1823918    11.290243   0.89391755 
   33200    299.74118    3364.7346    11405.085   -926.77385    3.3647346    11.405085   0.89165369 
   33300    302.53787    3298.5356    11413.905   -489.13917    3.2985356    11.413905   0.88896895 
   33400    303.91332    3188.6344      11340.9    382.72835    3.1886344      11.3409   0.88656332 
   33500    301.45597    3225.5313     11311.88   -1289.8972    3.2255313     11.31188   0.88506666 
   33600    295.85388    3391.7039     11327.78    201.64171    3.3917039     11.32778   0.88466026 
   33700    303.69373    3171.8281    11318.203    1295.0358    3.1718281    11.318203   0.88562232 
   33800    295.66307    3397.8838    11328.841   -595.07062    3.3978838    11.328841   0.88716496 
   33900    301.94356    3132.5004    11231.928    666.32567    3.1325004    11.231928   0.88878173 
   34000    297.38167    3232.0278    11209.086   -1123.9619    3.2320278    11.209086   0.89026544 
   34100    302.42393    3108.6175    11220.931   -1191.6921    3.1086175    11.220931   0.89150292 
   34200    300.99195    3309.6201    11383.521    1670.9493    3.3096201    11.383521    0.8918692 
   34300    300.57475    3401.8422    11464.552    172.22463    3.4018422    11.464552   0.89052957 
   34400    303.96387    3215.7136    11369.334    69.558095    3.2157136    11.369334   0.88953884 
   34500    300.47138    3221.8661    11281.803   -16.800614    3.2218661    11.281803   0.88833694 
   34600    299.35117    3218.5708    11248.459   -949.99773    3.2185708    11.248459   0.88787419 
   34700     299.3241         3206    11235.162   -437.99432        3.206    11.235162   0.88881809 
   34800    300.48858    3259.4563    11319.855   -92.954947    3.2594563    11.319855   0.88943665 
   34900    299.55973    3428.0795    11463.563   -219.30765    3.4280795    11.463563   0.88932977 
   35000    307.57548    3276.1752    11526.675    131.06538    3.2761752    11.526675   0.88918975 
   35100    297.42071    3346.1588    11324.264    444.90777    3.3461588    11.324264   0.88886512 
   35200    297.84465    3226.3372    11215.814    426.19376    3.2263372    11.215814   0.88929013 
   35300    303.00633    3062.0756    11190.011   -404.16561    3.0620756    11.190011   0.89095643 
   35400    297.66843     3301.105    11285.855   -1152.7979     3.301105    11.285855   0.89220129 
   35500    302.94036    3245.0146    11371.181   -237.71043    3.2450146    11.371181   0.89290172 
   35600    297.21517    3421.3051    11393.897     5.038197    3.4213051    11.393897   0.89320793 
   35700    302.26926    3093.8998    11202.064      572.885    3.0938998    11.202064   0.89333487 
   35800    299.99875    3088.6633    11135.923    1166.1055    3.0886633    11.135923   0.89344318 
   35900    299.15976    3147.5413    11172.295    80.188039    3.1475413    11.172295   0.89291487 
   36000     299.1483    3302.1767    11326.623   -288.54071    3.3021767    11.326623   0.89245712 
   36100    298.34491    3436.5482    11439.444    453.74566    3.4365482    11.439444   0.89202587 
   36200    304.43562    3211.0897    11377.365    323.34614    3.2110897    11.377365   0.89155881 
   36300    301.20663      3244.51     11324.17   -955.07525      3.24451     11.32417   0.89102544 
   36400    301.86144    3138.0043    11235.229   -1048.0541    3.1380043    11.235229   0.89055146 
   36500     300.4107    3170.7882    11229.098    627.38456    3.1707882    11.229098    0.8905723 
   36600     295.0477    3295.8798    11210.331    55.723394    3.2958798    11.210331   0.89087122 
   36700     299.5334    3172.5142    11207.291    622.16338    3.1725142    11.207291   0.89159431 
   36800    302.80644    3167.2561     11289.83   -26.639402    3.1672561     11.28983   0.89208017 
   36900    299.00935    3358.5259    11379.245   -434.76776    3.3585259    11.379245   0.89320229 
   37000     305.2199    3192.8467     11380.16   -445.54975    3.1928467     11.38016   0.89485922 
   37100    299.51016    3164.3004    11198.454   -917.07961    3.1643004    11.198454   0.89654674 
   37200     296.0417    3167.3683    11108.483     165.6913    3.1673683    11.108483   0.89787152 
   37300    299.95531     3064.432    11110.526    854.51894     3.064432    11.110526   0.89908954 
   37400    296.75807    3308.3411    11268.671    624.25419    3.3083411    11.268671   0.89835783 
   37500     305.2038    3121.1797    11308.061    1174.9065    3.1211797    11.308061   0.89533624 
   37600    304.89513     3076.535    11255.136    147.07073     3.076535    11.255136   0.89071444 
   37700    290.54525    3271.3749    11065.051    674.54216    3.2713749    11.065051   0.88760673 
   37800    293.08746    3176.0187    11037.888   -908.69232    3.1760187    11.037888   0.88601125 
   37900    302.75064    3048.1535     11169.23   -911.59893    3.0481535     11.16923   0.88636867 
   38000    297.02836    3327.0857    11294.666   -547.33373    3.3270857    11.294666    0.8878715 
   38100    305.82678    3067.5034    11271.096   -946.88083    3.0675034    11.271096   0.89062001 
   38200    299.42653    3175.9213    11207.831    515.70495    3.1759213    11.207831   0.89306927 
   38300    295.02914    3144.7912    11058.744    1048.1096    3.1447912    11.058744   0.89336734 
   38400    298.26524    3011.5466    11012.306    1229.2492    3.0115466    11.012306   0.89333122 
   38500    296.65001    3177.2028    11134.635    918.53125    3.1772028    11.134635   0.89335961 
   38600    298.23883    3207.3673    11207.418    639.22648    3.2073673    11.207418    0.8942687 
   38700    300.43704    3206.8507    11265.867    718.60926    3.2068507    11.265867   0.89461756 
   38800    299.92653    3259.4715    11304.794   -772.28436    3.2594715    11.304794   0.89376987 
   38900    301.61224    3155.4188    11245.959   -1225.5745    3.1554188    11.245959    0.8924641 
   39000    296.27432    3154.8346    11102.189    -336.7639    3.1548346    11.102189   0.89252939 
   39100    299.71841    3042.7585    11082.498    357.85323    3.0427585    11.082498   0.89302153 
   39200    300.82941    3139.8698    11209.411   -22.776186    3.1398698    11.209411   0.89347588 
   39300    298.58107    3276.0022    11285.233   -287.68063    3.2760022    11.285233   0.89447823 
   39400    304.75747    3046.6125    11221.521     218.7961    3.0466125    11.221521    0.8951149 
   39500    298.38678    3175.3387    11179.358   -161.55416    3.1753387    11.179358   0.89598907 
   39600    301.16652    3072.8808    11151.465    393.48763    3.0728808    11.151465   0.89716487 
   39700     299.0396    3075.9283    11097.459    429.65663    3.0759283    11.097459   0.89826687 
   39800    299.66526    2979.5881    11017.902    216.61287    2.9795881    11.017902   0.89857517 
   39900    293.82699    3201.2939        11083    869.71263    3.2012939       11.083    0.8987747 
   40000    301.99485    3139.4973    11240.301    -259.2841    3.1394973    11.240301   0.89821147 
   40100    304.59315    3093.1215    11263.623    127.43197    3.0931215    11.263623   0.89718132 
   40200    303.56413    3053.6757    11196.574   -692.94973    3.0536757    11.196574   0.89514925 
   40300    289.55648     3373.249    11140.402   -919.06349     3.373249    11.140402   0.89343953 
   40400    298.72662    2972.4226    10985.558   -337.79158    2.9724226    10.985558    0.8919391 
   40500    292.37109    3119.3421    10961.995   -710.97893    3.1193421    10.961995   0.89144026 
   40600     302.7816    3009.4988    11131.406   -815.45396    3.0094988    11.131406   0.89270455 
   40700    302.65722    3117.8518    11236.423    465.62439    3.1178518    11.236423   0.89529424 
   40800    299.88771    3221.0155    11265.296     467.3869    3.2210155    11.265296   0.89821708 
   40900    298.07045    3201.2542    11196.788    613.78338    3.2012542    11.196788   0.90061423 
   41000    300.48305    2976.3708    11036.621    2014.8779    2.9763708    11.036621   0.90166442 
   41100    296.86127    3093.7599    11056.858    1028.0045    3.0937599    11.056858   0.90178158 
   41200    299.55002     3132.805    11168.027    587.95321     3.132805    11.168027   0.90157948 
   41300    301.83002    3088.5718    11184.954   -493.37276    3.0885718    11.184954   0.90077631 
   41400    302.15782    3099.2343    11204.409   -177.13415    3.0992343    11.204409   0.89935387 
   41500    295.60685    3313.2385    11242.688   -1153.8468    3.3132385    11.242688   0.89677445 
   41600     298.9747     3084.865    11104.655   -1041.7389     3.084865    11.104655   0.89421391 
   41700    297.15888    3029.0465    11000.128   -75.082056    3.0290465    11.000128   0.89250202 
   41800    299.31597    3073.6204    11102.565   -194.41735    3.0736204    11.102565   0.89194862 
   41900    297.02032    3307.5621    11274.927    709.72169    3.3075621    11.274927   0.89323438 
   42000    301.47908     3183.401    11270.369    1069.1753     3.183401    11.270369   0.89574195 
   42100    299.94426    3166.6554    11212.453   -16.787331    3.1666554    11.212453   0.89872907 
   42200    300.18432    3063.7274    11115.965    1155.4354    3.0637274    11.115965   0.90173297 
   42300    298.63236    2980.1588    10990.766    378.88253    2.9801588    10.990766   0.90342919 
   42400    292.89117    3154.7586    11011.362    480.99632    3.1547586    11.011362   0.90388666 
   42500    300.76735    3148.2446    11216.121    982.19483    3.1482446    11.216121   0.90309249 
   42600    298.88634    3280.4058    11297.826   -1731.2636    3.2804058    11.297826   0.90052039 
   42700    303.89468    3066.1457    11217.911    927.38442    3.0661457    11.217911   0.89804873 
   42800    296.58248    3188.0922    11143.712    87.925776    3.1880922    11.143712   0.89560889 
   42900     301.6305    2987.3847    11078.415   -1529.6286    2.9873847    11.078415    0.8942444 
   43000    296.47203    3201.9073    11154.565    355.34068    3.2019073    11.154565   0.89436582 
   43100    303.60661    3160.8288    11304.866   -489.68945    3.1608288    11.304866   0.89499534 
   43200    301.95918    3239.3316    11339.178   -404.38588    3.2393316    11.339178   0.89540783 
   43300    301.46843    3098.6412    11185.324    781.09079    3.0986412    11.185324   0.89579837 
   43400    300.14593    3058.7856    11109.993   -199.52759    3.0587856    11.109993   0.89619261 
   43500     296.8574    3174.1068    11137.101     427.0398    3.1741068    11.137101   0.89636139 
   43600    298.62586    3210.9148    11221.347    478.98547    3.2109148    11.221347   0.89746992 
   43700    301.17042    3124.8119    11203.501   -1003.3396    3.1248119    11.203501   0.89883304 
   43800    297.72569    3063.3233    11049.609   -44.879796    3.0633233    11.049609   0.90015586 
   43900    295.43993    3042.0497    10967.022   -8.7564333    3.0420497    10.967022   0.89984895 
   44000    296.43449     3121.813    11073.464    481.87329     3.121813    11.073464   0.89841698 
   44100     306.1352    2962.7685    11174.634   -5.8288922    2.9627685    11.174634   0.89673626 
   44200    292.45689    3389.6965    11234.651   -1345.4839    3.3896965    11.234651   0.89522304 
   44300    302.04232    3049.9558    11152.032   -152.07122    3.0499558    11.152032   0.89493686 
   44400    298.44659     3062.448    11068.072     -273.418     3.062448    11.068072   0.89361541 
   44500    293.97293    3102.7243    10988.345    478.45432    3.1027243    10.988345    0.8930851 
   44600    298.28452    3139.0095    11140.286   -468.28438    3.1390095    11.140286   0.89281953 
   44700    304.64837    3078.3341    11250.316    708.97813    3.0783341    11.250316   0.89262692 
   44800    300.97785    3190.5205    11264.044    644.53738    3.1905205    11.264044   0.89267507 
   44900    300.86509    3140.2524    11210.751   -10.559678    3.1402524    11.210751   0.89272506 
   45000    296.47774      3149.52    11102.331    632.31826      3.14952    11.102331   0.89391555 
   45100    299.53672    2947.3336    10982.199   -555.67119    2.9473336    10.982199    0.8957947 
   45200    299.89304    3045.5725    11089.996   -706.74559    3.0455725    11.089996   0.89767945 
   45300    299.60715    3144.5121    11181.267   -243.43276    3.1445121    11.181267   0.89965854 
   45400     303.0329    3049.6669    11178.315    294.19346    3.0496669    11.178315   0.90161774 
   45500    301.09728    3061.5862    11138.313     -184.953    3.0615862    11.138313   0.90293028 
   45600    293.14454    3217.8065    11081.206    750.81179    3.2178065    11.081206   0.90273325 
   45700    298.27752    2999.8871    11000.976    964.31844    2.9998871    11.000976    0.9008022 
   45800    297.37624    3026.2924    11003.205   -205.39598    3.0262924    11.003205   0.89867783 
   45900    301.67811    3090.1654    11182.473   -860.00911    3.0901654    11.182473   0.89726886 
   46000    297.13854    3297.0225    11267.559   -715.30965    3.2970225    11.267559   0.89628472 
   46100    300.69449    3150.3958    11216.318   -1095.2135    3.1503958    11.216318   0.89614503 
   46200    299.81035    3042.4729    11084.679   -376.07985    3.0424729    11.084679   0.89708197 
   46300    300.46681    2898.3903    10958.205    400.51761    2.8983903    10.958205   0.89919171 
   46400    295.47795    3128.3677     11054.36   -631.79182    3.1283677     11.05436   0.90192926 
   46500    298.47729    3113.0656    11119.513    187.53671    3.1130656    11.119513   0.90386914 
   46600    303.77156    3011.4947    11159.957    592.45389    3.0114947    11.159957   0.90505915 
   46700    295.28465    3261.0471    11181.854   -262.88395    3.2610471    11.181854   0.90457164 
   46800    305.26163    2844.1453    11032.578    2001.7482    2.8441453    11.032578   0.90249121 
   46900    292.79668    3121.4794    10975.548   -582.17518    3.1214794    10.975548   0.89874381 
   47000    298.48164    3059.8151    11066.379   -594.13531    3.0598151    11.066379   0.89452207 
   47100    300.13746    3153.3776    11204.358   -319.26729    3.1533776    11.204358   0.89267241 
   47200    303.40224    3077.7613    11216.317   -1429.1006    3.0777613    11.216317    0.8928744 
   47300    301.28294    3095.3785    11177.085   -92.169428    3.0953785    11.177085   0.89436899 
   47400    301.48272    2959.1052    11046.171    386.28815    2.9591052    11.046171   0.89660316 
   47500    290.24448    3152.9697    10938.577    116.34187    3.1529697    10.938577   0.90007856 
   47600    295.68668    2843.3243    10774.915     824.5826    2.8433243    10.774915    0.9029176 
   47700    297.31694    2984.3171    10959.639    1266.1012    2.9843171    10.959639   0.90462621 
   47800    298.51248    3098.6202    11106.012    792.09155    3.0986202    11.106012   0.90543539 
   47900    303.42108    3005.4852    11144.546    781.32996    3.0054852    11.144546   0.90566625 
   48000    298.82086    3150.5023    11166.166   -485.69112    3.1505023    11.166166   0.90416981 
   48100    302.82104    2987.8684    11110.834   -937.25193    2.9878684    11.110834   0.90169621 
   48200    298.29399    3096.2733    11097.804   -305.93082    3.0962733    11.097804   0.89961446 
   48300    295.20253    3168.2907    11086.895   -1107.7623    3.1682907    11.086895    0.8978595 
   48400    299.10119    3117.0148    11140.198   -943.04871    3.1170148    11.140198    0.8972393 
   48500    303.04352    3125.8089    11254.742    411.25075    3.1258089    11.254742   0.89686715 
   48600    302.29098    3228.4143    11337.161    1158.8706    3.2284143    11.337161   0.89687155 
   48700    300.71689    3150.7937    11217.317    873.66892    3.1507937    11.217317   0.89668369 
   48800    298.10529    3117.6658    11114.134    531.54971    3.1176658    11.114134   0.89722151 
   48900    302.06489    3027.6498    11130.332    901.63787    3.0276498    11.130332   0.89787461 
   49000    298.75798    3181.0307    11195.007   -1281.7174    3.1810307    11.195007   0.89896971 
   49100    298.72727    3239.4447    11252.598    -828.0651    3.2394447    11.252598   0.90010428 
   49200    298.81792    3287.3394    11302.924   -289.28273    3.2873394    11.302924   0.90050847 
   49300    304.32271    2983.3122    11146.559   -2232.7698    2.9833122    11.146559   0.89974598 
   49400    300.09347    3012.8167    11062.617    1514.9237    3.0128167    11.062617    0.8997922 
   49500    299.74738    3003.3014    11043.818    1471.0436    3.0033014    11.043818   0.89932916 
   49600    293.59482    3283.7045    11159.183    783.03727    3.2837045    11.159183   0.89873434 
   49700    302.58654    3194.5349     11311.21    1766.2363    3.1945349     11.31121   0.89818022 
   49800    303.98593    3125.7102    11279.923   -1214.5622    3.1257102    11.279923   0.89691515 
   49900    301.19549    3082.0442    11161.405   -1244.4417    3.0820442    11.161405    0.8966298 
   50000    297.46469    3137.3307    11116.616   -819.40415    3.1373307    11.116616   0.89717944 
   50100    303.19609    2999.0368    11132.062   -1567.0025    2.9990368    11.132062   0.89743457 
   50200    295.26598    3251.4412    11171.747   -670.16426    3.2514412    11.171747   0.89774945 
   50300    302.12232     3052.622    11156.845    508.51639     3.052622    11.156845   0.89806579 
   50400    301.97789    3058.3983    11158.747    842.55682    3.0583983    11.158747    0.8990586 
   50500    297.75606    3212.3826    11199.483    753.16355    3.2123826    11.199483   0.90016197 
   50600    298.45438    3165.3447    11171.177     267.0938    3.1653447    11.171177   0.90083334 
   50700    301.69304    2967.2822     11059.99    1393.3428    2.9672822     11.05999   0.90146617 
   50800    295.11641    3084.2015    11000.496   -439.81449    3.0842015    11.000496   0.90143621 
   50900    302.95427    2990.3939    11116.933   -31.521471    2.9903939    11.116933    0.9013662 
   51000    296.67498    3312.5756    11270.677    169.97099    3.3125756    11.270677   0.90194259 
   51100    305.57386    3028.7477    11225.556   -1927.7693    3.0287477    11.225556   0.90140056 
   51200    296.33837    3188.2127    11137.285   -1392.2731    3.1882127    11.137285   0.90001793 
   51300    300.37507    2982.4616    11039.816    -591.4944    2.9824616    11.039816   0.89844617 
   51400    299.59405    3038.0652    11074.469   -158.70296    3.0380652    11.074469   0.89705217 
   51500    298.84198    3105.8516    11122.081    688.18764    3.1058516    11.122081   0.89540124 
   51600    302.25844    3067.9797    11175.854     1356.782    3.0679797    11.175854   0.89435195 
   51700    305.46717    2981.1983    11175.144    1759.3563    2.9811983    11.175144   0.89465479 
   51800    292.30088    3319.1493    11159.918    722.56311    3.3191493    11.159918   0.89545928 
   51900    303.58604    2974.9181    11118.404   -224.03573    2.9749181    11.118404   0.89575882 
   52000     299.0023    3175.0108    11195.541   -36.854352    3.1750108    11.195541   0.89724956 
   52100    307.42541    2983.5882    11230.063   -623.88934    2.9835882    11.230063   0.89934413 
   52200    295.71034    3281.1037    11213.329   -1149.7126    3.2811037    11.213329   0.90091319 
   52300    299.17195    3010.3654    11035.447   -323.59329    3.0103654    11.035447    0.9022594 
   52400     296.4443    3056.5371    11008.451    513.50168    3.0565371    11.008451   0.90294108 
   52500    303.78418    2961.5483    11110.349    369.13815    2.9615483    11.110349   0.90333511 
   52600    299.45854    3169.3591    11202.128   -45.879281    3.1693591    11.202128   0.90271487 
   52700     303.6454    3035.8224    11180.901    896.51295    3.0358224    11.180901   0.90146723 
   52800    296.11216    3213.5255     11156.53    709.14698    3.2135255     11.15653   0.89973988 
   52900    302.75136     3017.545    11138.641   -187.12305     3.017545    11.138641   0.89725839 
   53000    300.88994    3156.3677    11227.533    -758.4309    3.1563677    11.227533   0.89481852 
   53100    300.12395    3299.2541    11349.872    450.27573    3.2992541    11.349872    0.8930311 
   53200    301.78295    3200.6727    11295.792    390.42304    3.2006727    11.295792   0.89329313 
   53300    300.33036    3062.2008    11118.355   -523.30716    3.0622008    11.118355   0.89442455 
   53400    301.54379    3025.0596    11113.763    178.96418    3.0250596    11.113763   0.89628842 
   53500    296.72809    3202.8358    11162.362    345.62029    3.2028358    11.162362   0.89884157 
   53600    305.70473    3058.2071    11258.526   -374.20875    3.0582071    11.258526   0.90015025 
   53700    305.68953    3156.0885    11355.999   -155.91524    3.1560885    11.355999   0.90091176 
   53800    296.31224    3220.2632    11168.634   -189.48765    3.2202632    11.168634   0.90144354 
   53900    298.06551    3115.7626    11111.164   -460.93494    3.1157626    11.111164   0.90077112 
   54000    298.97546    3124.0225    11143.833   -347.53349    3.1240225    11.143833    0.8992243 
   54100    302.40226    3158.5773    11270.309    263.67479    3.1585773    11.270309   0.89750031 
   54200    304.38077    3075.1996    11240.003    827.90811    3.0751996    11.240003   0.89614738 
   54300    295.22116    3133.0807    11052.184     359.1786    3.1330807    11.052184   0.89623326 
   54400    302.33277    2909.5482    11019.416   -163.14584    2.9095482    11.019416   0.89618075 
   54500    299.00012     3096.867    11117.339   -428.00261     3.096867    11.117339   0.89657207 
   54600    300.03049    3169.8509    11217.962    -243.0426    3.1698509    11.217962   0.89725482 
   54700    300.17246    3178.9889    11230.908    -143.7258    3.1789889    11.230908    0.8975143 
   54800    302.60961    3037.7775    11155.071    499.37171    3.0377775    11.155071   0.89764404 
   54900    293.92622    3065.5087    10949.877    1086.2993    3.0655087    10.949877    0.8975923 
   55000    295.74543    3067.6112    11000.778    49.435335    3.0676112    11.000778   0.89691596 
   55100    302.98121    3008.2187    11135.481    137.69304    3.0082187    11.135481    0.8964141 
   55200    300.25273    3176.0844    11230.157    1160.3469    3.1760844    11.230157   0.89659187 
   55300    303.40042     3128.572    11267.079   -1529.6574     3.128572    11.267079   0.89655414 
   55400      299.533     3171.848    11206.614    124.27195     3.171848    11.206614   0.89708433 
   55500    298.21346    3009.9302      11009.3   -829.92755    3.0099302      11.0093   0.89736515 
   55600    297.99779    3028.3692    11021.954   -697.41667    3.0283692    11.021954   0.89862862 
   55700    298.95219    3136.9096    11156.096    217.60861    3.1369096    11.156096   0.89973548 
   55800    303.53043    3042.6906    11184.685    61.045076    3.0426906    11.184685   0.90058226 
   55900     302.0999    3090.3407    11193.962    1246.4861    3.0903407    11.193962   0.90097611 
   56000     299.9707    3124.7433     11171.25    1842.3366    3.1247433     11.17125   0.90025898 
   56100     297.2952    2964.9035    10939.642    882.81066    2.9649035    10.939642   0.89853128 
   56200    296.00137    3033.7566    10973.789    114.13171    3.0337566    10.973789    0.8961144 
   56300    303.84572    2948.1154    11098.567   -738.99438    2.9481154    11.098567   0.89397217 
   56400    297.90616    3208.3537    11199.481   -1848.0588    3.2083537    11.199481   0.89310405 
   56500    299.73045    3183.5463    11223.609   -615.46028    3.1835463    11.223609   0.89261898 
   56600    299.77522    3156.7218    11197.985    283.01761    3.1567218    11.197985   0.89339483 
   56700    293.69902    3174.2637    11052.537   -303.66044    3.1742637    11.052537   0.89540003 
   56800    302.97778    2850.4815    10977.651     638.3272    2.8504815    10.977651   0.89782409 
   56900     301.0713    3015.1085    11091.138    78.950917    3.0151085    11.091138   0.90053624 
   57000    302.96369    3102.7547    11229.547    1197.8968    3.1027547    11.229547   0.90218112 
   57100    297.61218    3249.8902    11233.131    1028.1042    3.2498902    11.233131   0.90218847 
   57200    299.60425    3155.2738    11191.951   -193.68371    3.1552738    11.191951   0.90027764 
   57300    303.26494    2968.5228    11103.395     470.4236    2.9685228    11.103395   0.89748272 
   57400    293.48501    3171.2375     11043.77   -1131.6789    3.1712375     11.04377   0.89544627 
   57500    299.95465    2917.1489    10963.225   -1021.5756    2.9171489    10.963225   0.89567409 
   57600     294.9205    3211.5146    11122.553    626.42038    3.2115146    11.122553   0.89723085 
   57700    298.42316    3228.5149     11233.51   -162.59296    3.2285149     11.23351   0.89855628 
   57800    306.95507    2986.4321     11220.29    357.57857    2.9864321     11.22029   0.90004185 
   57900    299.73418    3132.8285    11172.991   -65.561539    3.1328285    11.172991    0.9003355 
   58000    294.43884    3087.6813      10985.8   -995.33003    3.0876813      10.9858   0.89924027 
   58100    295.70711    3082.9794    11015.118   -504.26531    3.0829794    11.015118   0.89739637 
   58200    300.26056    3040.9626    11095.245    627.09355    3.0409626    11.095245   0.89587659 
   58300    299.53432    3119.9301    11154.731    1548.3007    3.1199301    11.154731   0.89487842 
   58400    299.46289    3151.5433    11184.429     1465.935    3.1515433    11.184429    0.8941404 
   58500    297.01701    3257.7283    11225.004   -331.58229    3.2577283    11.225004   0.89452799 
   58600    304.98779    3055.5213    11236.608   -689.88767    3.0555213    11.236608   0.89633121 
   58700    303.26441    3103.5972    11238.456    68.828659    3.1035972    11.238456   0.89801782 
   58800    301.82885    3025.7647    11122.115    818.48787    3.0257647    11.122115   0.89884266 
   58900    295.39734     3139.488    11063.318    -868.5757     3.139488    11.063318   0.89908378 
   59000    298.90018    3034.0733    11051.864    -233.3561    3.0340733    11.051864   0.89890511 
   59100    301.21108    3162.6097    11242.389    396.18049    3.1626097    11.242389   0.89780094 
   59200     303.3143    3143.4456    11279.642    405.02903    3.1434456    11.279642   0.89626013 
   59300    298.34255    3178.8918    11181.725    492.61192    3.1788918    11.181725   0.89573971 
   59400    300.02991      3073.03    11121.125   -197.28272      3.07303    11.121125   0.89496771 
   59500    297.86616    3166.3202    11156.374   -75.748298    3.1663202    11.156374   0.89468345 
   59600    298.94617    3118.5125    11137.537    984.73959    3.1185125    11.137537   0.89521338 
   59700    297.29088    3227.0145    11201.637   -1207.7827    3.2270145    11.201637   0.89458217 
   59800    303.01176    3127.2614    11255.343    -867.7969    3.1272614    11.255343   0.89380409 
   59900    303.98327    3089.3449    11243.486    790.86387    3.0893449    11.243486   0.89255394 
   60000    295.44078     3226.939    11151.934   -476.50216     3.226939    11.151934   0.89129119 
   60100    295.15677    3146.7575    11064.134     146.3256    3.1467575    11.064134   0.89199183 
   60200    307.58657    2838.7644    11089.562    606.79067    2.8387644    11.089562   0.89419941 
   60300    297.35968     3353.695    11330.163   -487.53822     3.353695    11.330163   0.89729566 
   60400    302.80825    3175.2805    11297.903   -465.85628    3.1752805    11.297903   0.90033831 
   60500    305.33393    3023.2797    11213.652    485.21865    3.0232797    11.213652   0.90258475 
   60600    296.82883    3164.1523    11126.381   -422.66415    3.1641523    11.126381   0.90226699 
   60700    299.96732    3018.5706    11064.987   -148.20522    3.0185706    11.064987    0.9017185 
   60800    301.95783    2929.7381    11029.548     533.7477    2.9297381    11.029548   0.90043636 
   60900    299.16079    3134.4772    11159.259    795.99813    3.1344772    11.159259   0.89846335 
   61000     302.7387    3184.8981    11305.655   -27.780107    3.1848981    11.305655   0.89662557 
   61100    298.84756    3273.1234    11289.503   -255.90928    3.2731234    11.289503   0.89446514 
   61200    302.66896    3012.0688    11130.955   -111.91722    3.0120688    11.130955    0.8936702 
   61300     296.1404    3160.5032    11104.265   -904.63763    3.1605032    11.104265    0.8948829 
   61400    300.96953    3053.5523    11126.852    -469.3475    3.0535523    11.126852   0.89688509 
   61500    302.93489    3006.9106     11132.93   -274.24246    3.0069106     11.13293   0.89857165 
   61600    296.97604    3164.6565    11130.834   -1156.1614    3.1646565    11.130834   0.89996213 
   61700    302.19039     3018.798    11124.847   -426.35249     3.018798    11.124847   0.90132494 
   61800    301.32254    3043.3199    11126.089    401.43344    3.0433199    11.126089   0.90190928 
   61900    298.35419    3092.4826    11095.628    1484.4931    3.0924826    11.095628   0.90143996 
   62000    299.86983    3022.0828    11065.884    779.44573    3.0220828    11.065884   0.89930009 
   62100    296.02246    3144.9695    11085.568   -24.883764    3.1449695    11.085568   0.89723948 
   62200     304.9506    2964.2077    11144.297    52.825127    2.9642077    11.144297   0.89641799 
   62300     297.5925    3297.8042    11280.517    -673.8435    3.2978042    11.280517   0.89646253 
   62400    304.15345    3133.3302    11292.036   -1065.2422    3.1333302    11.292036   0.89645987 
   62500    296.36593    3169.9499    11119.761   -327.05843    3.1699499    11.119761   0.89557981 
   62600     300.5226     2978.503    11039.814   -438.19002     2.978503    11.039814    0.8948196 
   62700    296.88422    3112.5535    11076.268    821.90879    3.1125535    11.076268   0.89592855 
   62800    306.31223    2910.7019    11127.316    262.32807    2.9107019    11.127316   0.89717336 
   62900     299.6126     3253.844    11290.745    207.62541     3.253844    11.290745   0.89968312 
   63000    300.42382    3203.8153    11262.477   -397.12957    3.2038153    11.262477   0.90198805 
   63100    302.08178    2907.1046     11010.24   -240.14795    2.9071046     11.01024   0.90207694 
   63200    296.38688    3079.4586    11029.832    890.70527    3.0794586    11.029832   0.90064384 
   63300    303.69239    2989.9479    11136.287   -938.24585    2.9899479    11.136287   0.89738593 
   63400    299.26761    3158.0806    11185.728   -214.71724    3.1580806    11.185728   0.89376567 
   63500    302.20971    3039.9056    11146.472   -110.98003    3.0399056    11.146472   0.89093345 
   63600    293.91747    3139.9941    11024.127   -261.93799    3.1399941    11.024127   0.88981032 
   63700    296.44171    3014.2677    10966.112    1658.9457    3.0142677    10.966112   0.88996969 
   63800     298.7781    3129.2749    11143.791    630.31685    3.1292749    11.143791   0.89188916 
   63900    302.60897    3090.7029     11207.98   -481.26755    3.0907029     11.20798   0.89529451 
   64000    295.59405    3281.9249    11211.031   -1077.0084    3.2819249    11.211031   0.89870424 
   64100    301.14874    3061.2414    11139.348   -2153.9952    3.0612414    11.139348   0.90094903 
   64200    301.04915    2892.0362    10967.472   -1693.9811    2.8920362    10.967472   0.90268534 
   64300    294.52459    3056.2572    10956.676     1484.021    3.0562572    10.956676   0.90300593 
   64400    299.61711    2996.7648    11033.787    1899.5319    2.9967648    11.033787   0.90164129 
   64500     302.9092    2961.7341    11087.064     1186.155    2.9617341    11.087064    0.8983266 
   64600    298.49338    3115.0415     11121.92    1440.7166    3.1150415     11.12192   0.89473051 
   64700    298.75377    3164.0049    11177.869    490.10779    3.1640049    11.177869    0.8923706 
   64800     301.6895    3166.8366    11259.449   -63.703802    3.1668366    11.259449   0.89108226 
   64900    304.28371    3277.8239    11440.024   -917.79907    3.2778239    11.440024   0.89073867 
   65000    302.16272    3247.7517    11353.058   -1742.0204    3.2477517    11.353058   0.89159386 
   65100    301.80732    3103.8113    11199.584    -1269.314    3.1038113    11.199584   0.89330407 
   65200    300.39946    3024.5891    11082.597   -375.05254    3.0245891    11.082597   0.89555736 
   65300     292.2264    3208.9287      11047.7   -715.94836    3.2089287      11.0477   0.89776554 
   65400    303.16993     2959.407    11091.731    1223.0068     2.959407    11.091731   0.89955341 
   65500     301.6208    3168.8495    11259.619    2023.6027    3.1688495    11.259619   0.89997959 
   65600    306.22233    3092.3751    11306.578    1146.4759    3.0923751    11.306578    0.8992616 
   65700    296.28118    3374.3851    11321.923    211.43659    3.3743851    11.321923   0.89655357 
   65800    301.12574    3039.7192    11117.209    186.40844    3.0397192    11.117209   0.89307598 
   65900    299.06225     3022.032     11044.17   -1637.5835     3.022032     11.04417   0.89050461 
   66000    301.16172     2998.568    11077.023   -888.97102     2.998568    11.077023   0.88972404 
   66100    300.17692    3182.8692    11234.908   -656.41978    3.1828692    11.234908   0.89148277 
   66200    302.73807    3142.1092    11262.849   -419.13424    3.1421092    11.262849   0.89421392 
   66300    299.74777    3168.1816    11208.709    274.95599    3.1681816    11.208709   0.89674731 
   66400    301.30422    3028.7114    11110.989   -53.170135    3.0287114    11.110989   0.89897636 
   66500    300.34317    3009.7308    11066.229   -382.70707    3.0097308    11.066229   0.90034352 
   66600    298.54823    3066.7541    11075.104   -295.53862    3.0667541    11.075104   0.89984229 
   66700     298.5409    3150.1431    11158.297    306.11346    3.1501431    11.158297   0.89882772 
   66800    303.62572    3157.3828    11301.933    199.80846    3.1573828    11.301933   0.89723934 
   66900     305.4462    3119.2067     11312.59    1062.0055    3.1192067     11.31259   0.89515421 
   67000    297.50036    3149.3931    11129.635    1189.8616    3.1493931    11.129635   0.89360742 
   67100    296.60849    3120.4834    11076.801    -1046.161    3.1204834    11.076801   0.89270237 
   67200    299.27496    3049.2169    11077.061   -1524.8103    3.0492169    11.077061   0.89229658 
   67300    305.87605     2975.008    11179.922   -851.16157     2.975008    11.179922    0.8930946 
   67400    299.13253    3249.8531    11273.877   -1287.1354    3.2498531    11.273877   0.89558807 
   67500    306.70597    2963.7357    11190.911   -690.25134    2.9637357    11.190911   0.89877085 
   67600    295.79257    3068.3144    11002.746    1428.7361    3.0683144    11.002746   0.90122968 
   67700    296.55955    3033.8357    10988.841    2292.2746    3.0338357    10.988841   0.90246312 
   67800    301.08708     3016.446    11092.899    1575.1056     3.016446    11.092899   0.90213319 
   67900    299.86805    3114.4849    11158.238    1004.3337    3.1144849    11.158238   0.90112184 
   68000    301.71426    3004.0385    11097.315   -146.42875    3.0040385    11.097315   0.89994405 
   68100    295.89878    2984.5488    10921.829   -65.317486    2.9845488    10.921829   0.89835134 
   68200    296.94982    2927.1141    10892.588   -1147.7024    2.9271141    10.892588   0.89604669 
   68300    295.61281    3102.3052    11031.915   -2394.0334    3.1023052    11.031915   0.89423133 
   68400    295.37165    3194.3715    11117.512   -1007.5394    3.1943715    11.117512   0.89311492 
   68500    305.22404    2941.1746    11128.599    517.89728    2.9411746    11.128599   0.89241119 
   68600    298.29323      3155.04     11156.55    365.21488      3.15504     11.15655   0.89291073 
   68700    300.33844    3153.1127    11209.484    1232.4121    3.1531127    11.209484   0.89422675 
   68800    303.79807    3135.8475    11285.021    1108.4258    3.1358475    11.285021   0.89635046 
   68900    304.13237    3045.5518    11203.693    287.83824    3.0455518    11.203693    0.8986923 
   69000    301.44682    2975.4467     11061.55    754.54443    2.9754467     11.06155   0.90141875 
   69100    298.27978     3008.174    11009.323   -236.41052     3.008174    11.009323    0.9019174 
   69200    296.08821    3135.1648    11077.527   -893.74596    3.1351648    11.077527   0.90107586 
   69300    302.90115    3004.6741    11129.788   -692.32369    3.0046741    11.129788   0.89938439 
   69400    304.17812    2973.0404    11132.409    297.98925    2.9730404    11.132409   0.89757756 
   69500    295.71165    3226.8414    11159.102    -423.3828    3.2268414    11.159102   0.89523188 
   69600    297.98848    3153.6486    11146.984    649.98329    3.1536486    11.146984   0.89334888 
   69700    306.03617    2901.8848    11111.094    1312.9246    2.9018848    11.111094    0.8921535 
   69800    296.40546    3164.8399    11115.712    -125.8786    3.1648399    11.115712   0.89161955 
   69900    300.06862    3053.7983    11102.932    869.74216    3.0537983    11.102932   0.89124186 
   70000    298.71178     3162.861    11175.598   -704.33693     3.162861    11.175598   0.89196064 
   70100    301.00887    3116.1976    11190.553   -555.51287    3.1161976    11.190553    0.8942245 
   70200    300.81658    3080.7524    11149.949   -948.40125    3.0807524    11.149949   0.89539084 
   70300    298.40622    3017.1633    11021.704    -1281.833    3.0171633    11.021704   0.89532543 
   70400     298.4132    2965.7645    10970.493   -458.66359    2.9657645    10.970493   0.89472371 
   70500    296.74517     3141.297    11101.281    218.65007     3.141297    11.101281   0.89381718 
   70600     305.3002    3037.8142    11227.281    1733.3221    3.0378142    11.227281   0.89354092 
   70700     298.4825    3195.4949    11202.082    1742.3021    3.1954949    11.202082   0.89381313 
   70800    300.86258    3017.3154    11087.746    1130.5644    3.0173154    11.087746   0.89402276 
   70900    298.43838    3092.7253    11098.129    468.45843    3.0927253    11.098129   0.89322776 
   71000    297.83939    3001.1436     10990.48   -1250.1231    3.0011436     10.99048   0.89207791 
   71100    294.54555    3040.8223    10941.803   -1359.2326    3.0408223    10.941803   0.89119207 
   71200    299.91718    2987.3681    11032.439   -1008.9849    2.9873681    11.032439   0.89091861 
   71300    302.51907    3055.4864    11170.352   -1236.4656    3.0554864    11.170352   0.89110989 
   71400    299.01309    3168.1615    11188.981    855.65852    3.1681615    11.188981   0.89306224 
   71500    298.30487    3191.8597    11193.682    2168.7981    3.1918597    11.193682   0.89528375 
   71600    302.51041    3018.2582    11132.891     1155.588    3.0182582    11.132891   0.89709217 
   71700    298.17434    2967.5128    10965.834   -250.72917    2.9675128    10.965834   0.89826277 
   71800    300.38644    2867.4472    10925.106   -804.63039    2.8674472    10.925106   0.89887282 
   71900    293.24864    3212.5247    11078.717   -1294.6338    3.2125247    11.078717   0.89883344 
   72000    306.16284    2930.6579    11143.265    300.38665    2.9306579    11.143265   0.89758377 
   72100    295.37969    3252.0205    11175.377    466.82111    3.2520205    11.175377   0.89427868 
   72200    302.50057    3026.2947    11140.664   -70.789788    3.0262947    11.140664   0.89061024 
   72300    300.68893    3093.8298    11159.603   -179.22872    3.0938298    11.159603    0.8883966 
   72400    300.14751    3026.0198     11077.27    20.321734    3.0260198     11.07727   0.88797722 
   72500    299.54508    2982.3019    11017.392    162.65069    2.9823019    11.017392   0.88944712 
   72600    300.53552    3021.7351    11083.393   -859.53601    3.0217351    11.083393   0.89142873 
   72700    300.59246    3156.2578    11219.443   -698.85892    3.1562578    11.219443   0.89446245 
   72800    305.58825     3047.875    11245.069   -574.38584     3.047875    11.245069   0.89731495 
   72900    298.13243    3098.5132     11095.71    167.62261    3.0985132     11.09571   0.89889103 
   73000    300.59655    2896.0361    10959.331    924.88739    2.8960361    10.959331   0.89956539 
   73100    296.03396    3090.3117    11031.218   -123.58433    3.0903117    11.031218   0.89928328 
   73200    297.17959    3197.1697    11168.807    277.26903    3.1971697    11.168807   0.89812413 
   73300    300.60488    3154.9927    11218.511    421.06237    3.1549927    11.218511   0.89704606 
   73400     304.6899    3013.6604    11186.757    885.15166    3.0136604    11.186757   0.89641519 
   73500    298.98519    3046.2681    11066.339    513.79891    3.0462681    11.066339   0.89498329 
   73600    295.43144    2982.3429    10907.087   -371.03154    2.9823429    10.907087   0.89274682 
   73700    297.77115    2970.6575    10958.163    -394.2735    2.9706575    10.958163   0.89101546 
   73800    298.72687    3078.5419    11091.684   -152.51067    3.0785419    11.091684   0.89141015 
   73900    299.93584     3114.021    11159.593    -742.1409     3.114021    11.159593   0.89320196 
   74000    300.78188    3111.7408    11180.007    98.646318    3.1117408    11.180007   0.89575386 
   74100    298.44663    3166.4228    11172.048     58.53053    3.1664228    11.172048   0.89773595 
   74200    300.63985    2965.7406    11030.197   -826.80926    2.9657406    11.030197   0.89932055 
   74300    297.56531    2962.1533    10944.137   -251.14931    2.9621533    10.944137   0.90062373 
   74400    301.01966    2880.4636    10955.108    732.95459    2.8804636    10.955108   0.90079008 
   74500     298.9429    3093.0389    11111.976    253.67121    3.0930389    11.111976    0.8988874 
   74600    302.00756    3078.1673    11179.312    896.32127    3.0781673    11.179312   0.89629995 
   74700     301.3712     3117.538    11201.612    1025.4986     3.117538    11.201612   0.89428192 
   74800     299.3281     3157.514    11186.784     -581.224     3.157514    11.186784    0.8926465 
[...]
  181900    301.54141    3031.0173    11119.657   -395.80241    3.0310173    11.119657   0.88272803 
  182000    301.55459    2998.7642    11087.758   -273.21767    2.9987642    11.087758   0.88539311 
  182100    296.30512     3103.028    11051.208   -142.25224     3.103028    11.051208   0.88787774 
  182200    295.07187    3077.0653    10992.164   -1.5394325    3.0770653    10.992164   0.88919547 
  182300    301.77846    2927.6872    11022.686    956.80988    2.9276872    11.022686   0.88881234 
  182400    300.43345    3115.0616    11173.981    964.64052    3.1150616    11.173981   0.88664679 
  182500    301.39954    3157.9526    11242.787    1313.9808    3.1579526    11.242787   0.88359713 
  182600    303.53763    3068.6353    11210.823    645.48055    3.0686353    11.210823   0.87996575 
  182700     293.1937    3188.3504    11053.069   -1232.2695    3.1883504    11.053069   0.87723014 
  182800     295.9549    3036.6992    10975.485   -1347.6775    3.0366992    10.975485   0.87484754 
  182900    299.52226    3027.6039    11062.082   -786.66645    3.0276039    11.062082   0.87390846 
  183000    295.25058    3215.7345    11135.627     129.5255    3.2157345    11.135627   0.87440588 
  183100    300.15087    3131.7396    11183.079    306.55841    3.1317396    11.183079   0.87558611 
  183200    302.00602     3164.996    11266.099    221.45615     3.164996    11.266099   0.87736259 
  183300    301.51333    3243.3514    11331.238     51.90161    3.2433514    11.331238   0.88057731 
  183400    301.23449    3101.2104    11181.618    496.55774    3.1012104    11.181618   0.88380705 
  183500    300.57633    2989.4799    11052.232    649.25077    2.9894799    11.052232   0.88598029 
  183600     299.8065    3041.5561    11083.658    191.97233    3.0415561    11.083658   0.88630194 
  183700    294.82157    3287.7353     11196.12   -381.82452    3.2877353     11.19612   0.88527281 
  183800    301.78418     3190.031    11285.183   -525.39625     3.190031    11.285183   0.88350815 
  183900     302.2426    3167.3026    11274.752   -344.51665    3.1673026    11.274752   0.88098134 
  184000    297.83963    3102.5835    11091.926   -1094.0121    3.1025835    11.091926   0.87908316 
  184100    301.19831    2892.0094    10971.446    443.24943    2.8920094    10.971446   0.87833609 
  184200    294.70038    3200.7325    11105.867    625.99225    3.2007325    11.105867   0.87754825 
  184300    300.63962    3142.3742    11206.825    308.62641    3.1423742    11.206825   0.87796887 
  184400    299.59447    3216.8914    11253.306    830.30338    3.2168914    11.253306   0.87887338 
  184500    300.98481    3208.7586    11282.468     426.2458    3.2087586    11.282468   0.87992867 
  184600    302.89474    3105.5694    11230.512   -349.87795    3.1055694    11.230512   0.88025089 
  184700    295.53491    3166.5925    11094.112   -346.75732    3.1665925    11.094112   0.88012266 
  184800    297.80421    3061.9594    11050.352   -1020.0013    3.0619594    11.050352   0.88089989 
  184900    299.47049     3148.699    11181.788   -503.31295     3.148699    11.181788   0.88288245 
  185000    302.80808    3152.3256    11274.943    185.12941    3.1523256    11.274943   0.88451727 
  185100    302.69459    3154.0047    11273.578    213.50431    3.1540047    11.273578   0.88544981 
  185200    301.62687    3101.5465    11192.479     350.9299    3.1015465    11.192479   0.88467703 
  185300    296.03288    3212.9634    11153.841   -284.17798    3.2129634    11.153841   0.88338692 
  185400    302.69725     2966.399    11086.044   -379.92507     2.966399    11.086044   0.88200714 
  185500    297.83151    3069.0791    11058.204   -337.18668    3.0690791    11.058204   0.88028265 
  185600     300.8524    3002.3224     11072.48   -209.47442    3.0023224     11.07248    0.8789685 
  185700     298.8569    3242.7379    11259.368    895.26812    3.2427379    11.259368   0.87768994 
  185800    300.40811     3227.898    11286.138    313.76257     3.227898    11.286138   0.87723651 
  185900    299.79166    3166.6694    11208.374    757.99215    3.1666694    11.208374   0.87717302 
  186000    301.20368    2996.6163    11076.197    848.33349    2.9966163    11.076197   0.87746817 
  186100    299.61602    3040.4604    11077.453   -478.86115    3.0404604    11.077453   0.87854778 
  186200     304.9607    3104.8777    11285.238    -428.3414    3.1048777    11.285238   0.88017362 
  186300    299.00752    3311.1352    11331.805   -426.50261    3.3111352    11.331805   0.88197525 
  186400    301.27372    3162.4568    11243.916   -328.65923    3.1624568    11.243916    0.8829262 
  186500    299.25673    3086.5511    11113.906   -410.00026    3.0865511    11.113906   0.88287936 
  186600    295.15263     3121.334      11038.6   -312.07777     3.121334      11.0386   0.88113854 
  186700    296.11152    3138.3777    11081.365    505.41225    3.1383777    11.081365   0.87965994 
  186800    303.75793    2991.8729     11139.97   -118.52943    2.9918729     11.13997    0.8793842 
  186900    302.62572    3065.1991    11182.925    539.01448    3.0651991    11.182925   0.87976142 
  187000    300.36079    3111.3598    11168.331       1019.2    3.1113598    11.168331   0.88075924 
  187100    296.91011    3035.9221    11000.331    11.325543    3.0359221    11.000331    0.8815429 
  187200    297.09415    2936.1389    10905.484    126.10118    2.9361389    10.905484   0.88160108 
  187300     298.5049    3020.0254    11027.213   -1710.8448    3.0200254    11.027213   0.88198646 
  187400     297.8648    3130.9231    11120.941   -877.78224    3.1309231    11.120941   0.88208177 
  187500    300.68536    3107.3721    11173.049    285.29952    3.1073721    11.173049   0.88206968 
  187600    302.06456    3113.5019    11216.175   -592.98054    3.1135019    11.216175   0.88160589 
  187700     302.9024    3051.1974    11176.345    1754.8123    3.0511974    11.176345   0.88050294 
  187800    298.60087    3044.8143    11054.576    797.55107    3.0448143    11.054576   0.87933385 
  187900    298.29437    3009.6311    11011.172    443.07739    3.0096311    11.011172   0.87836849 
  188000     297.6988    3130.9434    11116.508     3.631718    3.1309434    11.116508    0.8782186 
  188100    300.80561    3217.8671     11286.77   -1799.0094    3.2178671     11.28677   0.87843644 
  188200    304.28672    3115.8117    11278.093   -130.18249    3.1158117    11.278093   0.87838657 
  188300    299.74355    3148.9495    11189.363   0.69845881    3.1489495    11.189363   0.87851575 
  188400    297.25184    3145.1945     11118.77   -560.45098    3.1451945     11.11877   0.87851229 
  188500    299.06211    3045.5988    11067.734    1149.9301    3.0455988    11.067734   0.87912023 
  188600    293.48101    3084.1976    10956.623   -403.09084    3.0841976    10.956623   0.87959964 
  188700    298.41665    3002.2884    11007.109    42.937128    3.0022884    11.007109   0.87984522 
  188800    302.16667    3070.3875      11175.8    478.33878    3.0703875      11.1758   0.87991176 
  188900    300.44276    3194.4793    11253.649    29.528501    3.1944793    11.253649   0.87975464 
  189000    302.98799    3133.1785    11260.622    269.85001    3.1331785    11.260622    0.8785046 
  189100     298.7907    3204.3748    11219.229   -436.00743    3.2043748    11.219229   0.87693692 
  189200    299.45753    3020.3667    11053.108    236.13744    3.0203667    11.053108   0.87608676 
  189300    294.39435    3165.7735    11062.699   -265.72323    3.1657735    11.062699   0.87655791 
  189400    304.35179    2999.2392    11163.266    133.70153    2.9992392    11.163266   0.87738896 
  189500    300.78722    3118.5699    11186.979    352.55115    3.1185699    11.186979   0.87934294 
  189600    298.92804    3168.9273    11187.466   -944.95834    3.1689273    11.187466   0.88267416 
  189700     301.9194     3062.637    11161.417    123.57159     3.062637    11.161417   0.88564458 
  189800    300.11179    3019.7202    11070.012    298.09886    3.0197202    11.070012   0.88645701 
  189900    296.75317    3015.3494    10975.548    48.813145    3.0153494    10.975548   0.88498258 
  190000    294.14911    3026.9028     10917.25   -474.75223    3.0269028     10.91725   0.88281861 
  190100    295.62724    3114.2558    11044.253   -571.70485    3.1142558    11.044253   0.87928104 
  190200    303.29939    3050.5494    11186.346    280.58591    3.0505494    11.186346    0.8753579 
  190300    301.47943    3155.4062    11242.384   -238.96256    3.1554062    11.242384   0.87222015 
  190400    299.86678    3275.2292    11318.949    268.76324    3.2752292    11.318949   0.87033611 
  190500    302.94207    3240.8259    11367.038    532.39593    3.2408259    11.367038   0.87090428 
  190600    298.98789    3203.4133    11223.557   -620.31001    3.2034133    11.223557   0.87221646 
  190700    300.09988    3041.0144    11090.987    594.43604    3.0410144    11.090987   0.87399098 
  190800    294.89253    3228.2184    11138.507   -596.92165    3.2282184    11.138507   0.87611951 
  190900    302.45554    3143.0065    11256.168   -308.61127    3.1430065    11.256168   0.87864148 
  191000    301.50632    3209.8389    11297.538    219.20047    3.2098389    11.297538   0.88005082 
  191100    300.76348    3165.3199    11233.092    -622.2411    3.1653199    11.233092   0.88044197 
  191200    303.70317    3018.6022     11165.23    523.61127    3.0186022     11.16523   0.88026204 
  191300    296.74455    3175.8154    11135.783    1017.6243    3.1758154    11.135783   0.88057945 
  191400    300.05284    3105.4889    11154.199    690.46524    3.1054889    11.154199   0.88065352 
  191500    303.08081    3090.4983    11220.432    381.31619    3.0904983    11.220432   0.88053217 
  191600    303.02231    3136.3985    11264.763   -177.31917    3.1363985    11.264763   0.88004692 
  191700    299.84392    3141.8119    11184.918   -449.15538    3.1418119    11.184918   0.87861093 
  191800    295.67075    3132.3346    11063.499   -1313.0481    3.1323346    11.063499   0.87696263 
  191900    301.06721    2920.1173    10996.037   -152.93425    2.9201173    10.996037   0.87607273 
  192000    297.02036    3128.6166    11095.983   -559.02274    3.1286166    11.095983    0.8757134 
  192100    302.75641     3168.343    11289.575    827.55894     3.168343    11.289575   0.87616281 
  192200    302.87729    3142.4869    11266.961    87.356709    3.1424869    11.266961    0.8763496 
  192300    297.78305     3178.422    11166.247    283.09612     3.178422    11.166247   0.87632348 
  192400    300.45623    3033.5019    11093.033    304.91372    3.0335019    11.093033   0.87615702 
  192500    297.93137    3202.8295    11194.633   -132.15089    3.2028295    11.194633    0.8757625 
  192600    306.62778    3119.4778    11344.556   -359.44565    3.1194778    11.344556   0.87495361 
  192700    299.27584    3259.5922     11287.46    22.449726    3.2595922     11.28746    0.8742546 
  192800    297.80733    3217.1403    11205.616   -457.06157    3.2171403    11.205616   0.87395786 
  192900    300.39359    3077.8026    11135.653   -96.595036    3.0778026    11.135653   0.87417054 
  193000    297.70071    3150.1379    11135.754    380.33875    3.1501379    11.135754   0.87482146 
  193100    307.22166    3103.5343    11344.543   -229.78637    3.1035343    11.344543   0.87582722 
  193200    299.38539    3364.6726    11395.479    981.22344    3.3646726    11.395479   0.87679653 
  193300    306.10434    3087.7589    11298.796   -145.90982    3.0877589    11.298796   0.87690074 
  193400    296.97195    3259.5141    11225.582   -1099.0345    3.2595141    11.225582   0.87619466 
  193500    298.58405     3183.323    11192.634   -70.094453     3.183323    11.192634   0.87568491 
  193600    301.55503    3047.0381    11136.043   -615.96539    3.0470381    11.136043   0.87622954 
  193700    298.16199     3060.398    11058.388   -320.41473     3.060398    11.058388   0.87774979 
  193800    296.00966    2916.9806    10857.235      799.039    2.9169806    10.857235   0.87965249 
  193900    293.97623    3057.8165    10943.526     392.3705    3.0578165    10.943526   0.88249705 
  194000    303.07769    2940.3564    11070.206    947.80441    2.9403564    11.070206   0.88546812 
  194100    301.27819    3047.2797    11128.859   -525.39609    3.0472797    11.128859   0.88555058 
  194200     298.5319    3153.1961    11161.108   -507.15796    3.1531961    11.161108   0.88470773 
  194300    300.28739    3117.4633    11172.465     91.60205    3.1174633    11.172465   0.88202624 
  194400    297.45769    3158.8267    11137.924   -770.06635    3.1588267    11.137924   0.87854085 
  194500    297.99552    3105.4201    11098.944    154.71475    3.1054201    11.098944   0.87598473 
  194600    299.90202    3075.5867    11120.251    361.75451    3.0755867    11.120251   0.87404671 
  194700    299.16903    3233.7105    11258.713   -46.954401    3.2337105    11.258713   0.87355832 
  194800    305.09316    3167.6617    11351.575    369.18285    3.1676617    11.351575   0.87340775 
  194900    299.16464    3303.2735    11328.158   -843.35764    3.3032735    11.328158   0.87362355 
  195000    302.35653    3105.0177    11215.523    152.18702    3.1050177    11.215523   0.87443209 
  195100    300.91609    3117.2877    11189.154    191.08041    3.1172877    11.189154   0.87545059 
  195200    295.19772    3279.2867    11197.762    222.01659    3.2792867    11.197762    0.8769067 
  195300    301.50336    3103.2533    11190.873    790.49082    3.1032533    11.190873   0.87891106 
  195400    303.38441    3067.5112    11205.589   -147.62703    3.0675112    11.205589   0.88097352 
  195500    296.41452    3253.8135    11204.928    484.62541    3.2538135    11.204928   0.88166063 
  195600    301.30159    3006.9275    11089.135   -472.79423    3.0069275    11.089135   0.88054493 
  195700    294.19825    3112.6594    11004.324   -1526.8296    3.1126594    11.004324   0.87841863 
  195800     303.1296    2921.3347    11052.577     569.3978    2.9213347    11.052577   0.87748914 
  195900    301.04188    3171.0715    11246.312   -950.14035    3.1710715    11.246312   0.87802392 
  196000    299.64745    3242.1476    11279.983    655.18622    3.2421476    11.279983   0.87974758 
  196100    300.54796    3143.5778    11205.569    996.21397    3.1435778    11.205569   0.88133073 
  196200    299.17315    3107.8278    11132.941   -1467.1344    3.1078278    11.132941    0.8814283 
  196300    298.88643    3139.5445    11156.967    119.18551    3.1395445    11.156967   0.88049944 
  196400    301.03676    3108.4753    11183.578     143.8797    3.1084753    11.183578   0.87956084 
  196500    300.77081    3134.7226    11202.692   -1037.1929    3.1347226    11.202692   0.87872892 
  196600     304.0216    3019.6771    11174.847    1546.2973    3.0196771    11.174847   0.87783009 
  196700    298.44325    3113.3559     11118.89   -581.59345    3.1133559     11.11889   0.87698534 
  196800    296.22534    3116.5689    11062.609   -489.56182    3.1165689    11.062609   0.87613062 
  196900    301.39155    2979.2686    11063.889   -420.99626    2.9792686    11.063889   0.87495379 
  197000    294.39672    3344.9998    11241.989   -1592.0437    3.3449998    11.241989   0.87473524 
  197100    303.58116    3186.9747     11330.33   -56.445615    3.1869747     11.33033   0.87560743 
  197200    304.49451    3101.1134    11268.969     340.5014    3.1011134    11.268969   0.87642255 
  197300     294.7638    3244.5896    11151.425    992.27344    3.2445896    11.151425    0.8770662 
  197400    299.78584    3087.6064    11129.155    291.65031    3.0876064    11.129155   0.87708391 
  197500    298.95236    3150.1402    11169.331    348.96063    3.1501402    11.169331   0.87783788 
  197600    300.59655    3130.9432    11194.238    1173.9161    3.1309432    11.194238   0.87895487 
  197700    300.04375    3147.6291    11196.096   -915.09991    3.1476291    11.196096   0.87943863 
  197800    297.43343    3065.0789    11043.525    552.44084    3.0650789    11.043525   0.87938334 
  197900     296.6507    3027.2122    10984.662    236.32633    3.0272122    10.984662   0.87973679 
  198000    298.71225    3053.3918    11066.142   -1705.6402    3.0533918    11.066142   0.87931009 
  198100    303.91522    3032.1429    11184.459    258.92097    3.0321429    11.184459   0.87855914 
  198200    301.05761    3186.6536    11262.316   -710.76282    3.1866536    11.262316    0.8782032 
  198300    300.75484    3203.7311    11271.272   -561.59336    3.2037311    11.271272   0.87859607 
  198400     298.3179    3220.1302    11222.302    1202.7991    3.2201302    11.222302   0.87918482 
  198500    300.61881    3123.9233    11187.816   -639.69685    3.1239233    11.187816   0.87918241 
  198600    296.28977    3218.3951    11166.164    26.953784    3.2183951    11.166164   0.87921306 
  198700    300.65501    3010.9501    11075.813    228.14952    3.0109501    11.075813    0.8793438 
  198800    300.10827    2954.1584    11004.356   -628.79496    2.9541584    11.004356   0.88030156 
  198900     295.9002    2997.8556    10935.174    1285.9615    2.9978556    10.935174    0.8818766 
  199000    294.57055    3046.2774    10947.929    386.22549    3.0462774    10.947929   0.88278028 
  199100    302.21562    3017.3653    11124.091   -218.37283    3.0173653    11.124091   0.88343574 
  199200    300.11845    3125.7864    11176.257    75.715014    3.1257864    11.176257   0.88346469 
  199300    299.20097    3154.6187    11180.478   -105.80037    3.1546187    11.180478   0.88260215 
  199400     302.5787    3039.3819    11155.846   -35.461217    3.0393819    11.155846   0.88203971 
  199500    295.25316    3141.7095    11061.672   -543.08235    3.1417095    11.061672   0.88184476 
  199600    301.27278    2975.3173    11056.752    588.48073    2.9753173    11.056752   0.88273433 
  199700    299.69869    3128.2563    11167.467   -75.252895    3.1282563    11.167467   0.88445939 
  199800    306.71934    3029.7026    11257.237   -10.549128    3.0297026    11.257237   0.88569473 
  199900    298.72725    3193.6498    11206.802    1078.9831    3.1936498    11.206802    0.8853057 
  200000    298.60413    3013.8442    11023.694   -604.49476    3.0138442    11.023694   0.88364802 
Loop time of 6243.89 on 20 procs for 200000 steps with 9000 atoms

Performance: 2.768 ns/day, 8.672 hours/ns, 32.031 timesteps/s
99.1% CPU use with 20 MPI tasks x no OpenMP threads

MPI task timing breakdown:
Section |  min time  |  avg time  |  max time  |%varavg| %total
---------------------------------------------------------------
Pair    | 2133.7     | 2185.5     | 2283.6     |  89.6 | 35.00
Bond    | 32.806     | 33.951     | 34.953     |  10.6 |  0.54
Kspace  | 181.06     | 279.86     | 333.08     | 251.4 |  4.48
Neigh   | 3516.4     | 3517.8     | 3518.9     |   1.1 | 56.34
Comm    | 154.04     | 166.37     | 171.81     |  47.2 |  2.66
Output  | 0.40731    | 0.41782    | 0.60788    |   6.7 |  0.01
Modify  | 24.698     | 29.99      | 42.029     | 109.9 |  0.48
Other   |            | 29.94      |            |       |  0.48

Nlocal:    450 ave 474 max 428 min
Histogram: 3 2 2 0 2 3 4 1 1 2
Nghost:    13395.2 ave 13459 max 13329 min
Histogram: 1 3 1 2 2 2 5 1 1 2
Neighs:    481177 ave 507812 max 451228 min
Histogram: 2 1 2 1 2 4 2 3 1 2

Total # of neighbors = 9623537
Ave neighs/atom = 1069.28
Ave special neighs/atom = 7.33333
Neighbor list builds = 200000
Dangerous builds not checked
unfix			rlx

write_data 		rlx.lmp
PPPM initialization ...
WARNING: Using 12-bit tables for long-range coulomb (../kspace.cpp:321)
  G vector (1/distance) = 0.186633
  grid = 20 16 20
  stencil order = 5
  estimated absolute RMS force accuracy = 0.0025649
  estimated relative force accuracy = 7.72411e-06
  using double precision FFTs
  3d grid and FFT values/proc = 1755 320

Total wall time: 1:44:04
